source /home/sarom/dir.git.branch.saromleang-travis-ci/install.info
setenv GMS_PATH /home/sarom/dir.git.branch.saromleang-travis-ci
setenv GMS_BUILD_DIR /home/sarom/dir.git.branch.saromleang-travis-ci
setenv GMS_TARGET linux64
setenv GMS_FORTRAN gfortran
setenv GMS_GFORTRAN_VERNO 4.4
setenv GMS_MATHLIB mkl-so
setenv GMS_MATHLIB_PATH /share/apps/intel/compilers_and_libraries_2017.1.132/linux/mkl/lib/intel64
setenv GMS_MKL_VERNO 12
setenv GMS_DDI_COMM sockets
setenv GMS_LIBCCHEM false
setenv GMS_EIGEN_PATH
setenv GMS_PHI false
setenv GMS_SHMTYPE sysv
setenv GMS_OPENMP false
unset echo
tbs.inp
tests/rhf
----- GAMESS execution script 'rungms' -----
This job is running on host bolt.iprt.iastate.edu
under operating system Linux at Sun Jul 30 15:55:24 CDT 2017
Available scratch disk space (Kbyte units) at beginning of the job is
Filesystem           1K-blocks      Used Available Use% Mounted on
/dev/sda4            9590469592 1729962380 7373339316  20% /state/partition1
GAMESS temporary binary files will be written to /home/sarom/dir.git.branch.saromleang-travis-ci/scratch
GAMESS supplementary output files will be written to /home/sarom/restart
rm: No match.
Copying input file tbs.inp to your run's scratch directory...
cp tests/rhf/tbs.inp /home/sarom/dir.git.branch.saromleang-travis-ci/scratch/tbs.F05
unset echo
rm -rf /home/sarom/restart/tbs.dat
rm -rf /home/sarom/restart/tbs.efp
rm -rf /home/sarom/restart/tbs.trj
rm -rf /home/sarom/restart/tbs.rst
rm -rf /home/sarom/restart/tbs.dmn
unset echo
 
Assuming a single but multicore node.
 
The generated host list is
bolt.iprt.iastate.edu:cpus=6
/home/sarom/dir.git.branch.saromleang-travis-ci/ddikick.x /home/sarom/dir.git.branch.saromleang-travis-ci/gamess.00.x tbs -ddi 1 6 bolt.iprt.iastate.edu:cpus=6 -scr /home/sarom/dir.git.branch.saromleang-travis-ci/scratch

 Distributed Data Interface kickoff program.
 Initiating 6 compute processes on 1 nodes to run the following command:
 /home/sarom/dir.git.branch.saromleang-travis-ci/gamess.00.x tbs 

          ******************************************************
          *         GAMESS VERSION = 20 APR 2017 (R1)          *
          *             FROM IOWA STATE UNIVERSITY             *
          * M.W.SCHMIDT, K.K.BALDRIDGE, J.A.BOATZ, S.T.ELBERT, *
          *   M.S.GORDON, J.H.JENSEN, S.KOSEKI, N.MATSUNAGA,   *
          *          K.A.NGUYEN, S.J.SU, T.L.WINDUS,           *
          *       TOGETHER WITH M.DUPUIS, J.A.MONTGOMERY       *
          *         J.COMPUT.CHEM.  14, 1347-1363(1993)        *
          **************** 64 BIT LINUX VERSION ****************

  SINCE 1993, STUDENTS AND POSTDOCS WORKING AT IOWA STATE UNIVERSITY
  AND ALSO IN THEIR VARIOUS JOBS AFTER LEAVING ISU HAVE MADE IMPORTANT
  CONTRIBUTIONS TO THE CODE:
     IVANA ADAMOVIC, CHRISTINE AIKENS, YURI ALEXEEV, POOJA ARORA,
     ANDREY ASADCHEV, ROB BELL, PRADIPTA BANDYOPADHYAY, JONATHAN BENTZ,
     BRETT BODE, KURT BRORSEN, CALEB CARLIN, GALINA CHABAN, WEI CHEN,
     CHEOL HO CHOI, PAUL DAY, ALBERT DEFUSCO, NUWAN DESILVA, TIM DUDLEY,
     DMITRI FEDOROV, GRAHAM FLETCHER, MARK FREITAG, KURT GLAESEMANN,
     DAN KEMP, GRANT MERRILL, NORIYUKI MINEZAWA, JONATHAN MULLIN,
     TAKESHI NAGATA, SEAN NEDD, HEATHER NETZLOFF, BOSILJKA NJEGIC, RYAN OLSON,
     MIKE PAK, SPENCER PRUITT, LUKE ROSKOP, JIM SHOEMAKER, LYUDMILA SLIPCHENKO,
     TONY SMITH, SAROM SOK LEANG, JIE SONG, TETSUYA TAKETSUGU, SIMON WEBB,
     PENG XU, SOOHAENG YOO, FEDERICO ZAHARIEV

  ADDITIONAL CODE HAS BEEN PROVIDED BY COLLABORATORS IN OTHER GROUPS:
     IOWA STATE UNIVERSITY:
          JOE IVANIC, AARON WEST, LAIMUTIS BYTAUTAS, KLAUS RUEDENBERG
     UNIVERSITY OF TOKYO: KIMIHIKO HIRAO, TAKAHITO NAKAJIMA,
          TAKAO TSUNEDA, MUNEAKI KAMIYA, SUSUMU YANAGISAWA,
          KIYOSHI YAGI, MAHITO CHIBA, SEIKEN TOKURA, NAOAKI KAWAKAMI
     UNIVERSITY OF AARHUS: FRANK JENSEN
     UNIVERSITY OF IOWA: VISVALDAS KAIRYS, HUI LI
     NATIONAL INST. OF STANDARDS AND TECHNOLOGY: WALT STEVENS, DAVID GARMER
     UNIVERSITY OF PISA: BENEDETTA MENNUCCI, JACOPO TOMASI
     UNIVERSITY OF MEMPHIS: HENRY KURTZ, PRAKASHAN KORAMBATH
     UNIVERSITY OF ALBERTA: TOBY ZENG, MARIUSZ KLOBUKOWSKI
     UNIVERSITY OF NEW ENGLAND: MARK SPACKMAN
     MIE UNIVERSITY: HIROAKI UMEDA
     NAT. INST. OF ADVANCED INDUSTRIAL SCIENCE AND TECHNOLOGY: KAZUO KITAURA
     MICHIGAN STATE UNIVERSITY:
          KAROL KOWALSKI, MARTA WLOCH, JEFFREY GOUR, JESSE LUTZ,
          WEI LI, PIOTR PIECUCH
     UNIVERSITY OF SILESIA: MONIKA MUSIAL, STANISLAW KUCHARSKI
     FACULTES UNIVERSITAIRES NOTRE-DAME DE LA PAIX:
          OLIVIER QUINET, BENOIT CHAMPAGNE
     UNIVERSITY OF CALIFORNIA - SANTA BARBARA: BERNARD KIRTMAN
     INSTITUTE FOR MOLECULAR SCIENCE:
          KAZUYA ISHIMURA, MICHIO KATOUDA, AND SHIGERU NAGASE
     UNIVERSITY OF NOTRE DAME: ANNA POMOGAEVA, DAN CHIPMAN
     KYUSHU UNIVERSITY:
          HARUYUKI NAKANO,
          FENG LONG GU, JACEK KORCHOWIEC, MARCIN MAKOWSKI, AND YURIKO AOKI,
          HIROTOSHI MORI AND EISAKU MIYOSHI
     PENNSYLVANIA STATE UNIVERSITY:
          TZVETELIN IORDANOV, CHET SWALINA, JONATHAN SKONE,
          SHARON HAMMES-SCHIFFER
     WASEDA UNIVERSITY:
          MASATO KOBAYASHI, TOMOKO AKAMA, TSUGUKI TOUMA,
          TAKESHI YOSHIKAWA, YASUHIRO IKABATA, JUNJI SEINO,
          YUYA NAKAJIMA, HIROMI NAKAI
     NANJING UNIVERSITY: SHUHUA LI
     UNIVERSITY OF NEBRASKA:
          PEIFENG SU, DEJUN SI, NANDUN THELLAMUREGE, YALI WANG, HUI LI
     UNIVERSITY OF ZURICH: ROBERTO PEVERATI, KIM BALDRIDGE
     N. COPERNICUS UNIVERSITY AND JACKSON STATE UNIVERSITY:
          MARIA BARYSZ
     UNIVERSITY OF COPENHAGEN: Jimmy Kromann, CASPER STEINMANN
     TOKYO INSTITUTE OF TECHNOLOGY: HIROYA NAKATA
     NAGOYA UNIVERSITY: YOSHIO NISHIMOTO, STEPHAN IRLE
     MOSCOW STATE UNIVERSITY: VLADIMIR MIRONOV


 PARALLEL VERSION RUNNING ON        6 PROCESSORS IN        1 NODES.

 EXECUTION OF GAMESS BEGUN Sun Jul 30 15:55:24 2017

            ECHO OF THE FIRST FEW INPUT CARDS -
 INPUT CARD>!   Si(C(CH3)3)...called here as TBS...331 AOs, 53 atoms                        
 INPUT CARD>!   the novelty of tetra-(t-butyl)silane is its symmetry T, not Td.             
 INPUT CARD>!   note that the NMR internal standard TMS is Td, see below.                   
 INPUT CARD>!                                                                               
 INPUT CARD>!   FINAL E= -915.7279546107, 11 iters                                          
 INPUT CARD>!    minimum FREQ= 141.11 (t), 160.23 (e), 179.73 (a), ...                      
 INPUT CARD>!    maximum FREQ= ..., 3317.15 (a), 3325.75 (t), 3328.62 (e)                   
 INPUT CARD>!   residual FREQ= 0.03 (t) and 1.31 (t)                                        
 INPUT CARD>!                                                                               
 INPUT CARD>!   This run takes 1752 seconds on 2.66 GHz Cloverton (17 Mar 2015)             
 INPUT CARD>!   results have not changed since 2011                                         
 INPUT CARD>!                                                                               
 INPUT CARD> $contrl scftyp=rhf runtyp=hessian molplt=.true. $end                           
 INPUT CARD> $system mwords=25 $end                                                         
 INPUT CARD> $basis  gbasis=n31 ngauss=6 ndfunc=1 $end                                      
 INPUT CARD> $guess  guess=huckel $end                                                      
 INPUT CARD> $scf    dirscf=.t. $end                                                        
 INPUT CARD> $statpt opttol=1d-5 $end                                                       
 INPUT CARD> $data                                                                          
 INPUT CARD>tetra-(t-butyl)-silane...RHF/6-31G* coordinates                                 
 INPUT CARD>T                                                                               
 INPUT CARD>                                                                                
 INPUT CARD>Si 14.0   0.0000000000   0.0000000000   0.0000000000                            
 INPUT CARD>C   6.0   1.1523427023   1.1523427023   1.1523427023                            
 INPUT CARD>C   6.0   0.3769606901   1.7860243561   2.3313146952                            
 INPUT CARD>H   1.0   1.0366828323   2.4678367445   2.8648437658                            
 INPUT CARD>H   1.0   0.0403426709   1.0519099093   3.0508474240                            
 INPUT CARD>H   1.0  -0.4835693664   2.3608479787   2.0163133881                            
 INPUT CARD> $end                                                                           
 INPUT CARD>                                                                                
 INPUT CARD>------- T, E= -915.7279546107, pos.def.                                         
 INPUT CARD>Si 14.0   0.0000000000   0.0000000000   0.0000000000                            
 INPUT CARD>C   6.0   1.1523427023   1.1523427023   1.1523427023                            
 INPUT CARD>C   6.0   0.3769606901   1.7860243561   2.3313146952                            
 INPUT CARD>H   1.0   1.0366828323   2.4678367445   2.8648437658                            
 INPUT CARD>H   1.0   0.0403426709   1.0519099093   3.0508474240                            
 INPUT CARD>H   1.0  -0.4835693664   2.3608479787   2.0163133881                            
 INPUT CARD>                                                                                
 INPUT CARD>------- staggered Td, E= -915.7001156692, w= 204.29i (a2), 136.60i (t1)         
 INPUT CARD>Si 14.0   0.0000000000   0.0000000000   0.0000000000                            
 INPUT CARD>C   6.0   1.1742145015   1.1742145015   1.1742145015                            
 INPUT CARD>C   6.0   2.1122979607   2.1122979607   0.3783175296                            
 INPUT CARD>H   1.0   2.6977682448   2.6977682448   1.0842285277                            
 INPUT CARD>H   1.0  -0.2427036608   2.8187403942   1.5829544760                            
 INPUT CARD>                                                                                
 INPUT CARD>------- eclipsed Td, E= -915.6082536896, w= 154.59i (a2), 121.18 (t1)           
 INPUT CARD>Si 14.0   0.0000000000   0.0000000000   0.0000000000                            
 INPUT CARD>C   6.0   1.2431071405   1.2431071405   1.2431071405                            
 INPUT CARD>C   6.0   1.0532549788   1.0532549788   2.7629961391                            
 INPUT CARD>H   1.0   1.7328878909   1.7328878909   3.2708691072                            
   25000000 WORDS OF MEMORY AVAILABLE

     BASIS OPTIONS
     -------------
     GBASIS=N31          IGAUSS=       6      POLAR=POPN31  
     NDFUNC=       1     NFFUNC=       0     DIFFSP=       F
     NPFUNC=       0      DIFFS=       F     BASNAM=        


     RUN TITLE
     ---------
 tetra-(t-butyl)-silane...RHF/6-31G* coordinates                                 

 THE POINT GROUP OF THE MOLECULE IS T       
 THE ORDER OF THE PRINCIPAL AXIS IS     0

 ATOM      ATOMIC                      COORDINATES (BOHR)
           CHARGE         X                   Y                   Z
 SI         14.0     0.0000000000        0.0000000000        0.0000000000
 C           6.0     2.1776119513       -2.1776119513       -2.1776119513
 C           6.0    -2.1776119513        2.1776119513       -2.1776119513
 C           6.0    -2.1776119513       -2.1776119513        2.1776119513
 C           6.0     2.1776119513        2.1776119513        2.1776119513
 C           6.0     0.7123524124       -3.3750966404       -4.4055459651
 C           6.0    -0.7123524124        3.3750966404       -4.4055459651
 C           6.0    -0.7123524124       -3.3750966404        4.4055459651
 C           6.0     4.4055459651        0.7123524124        3.3750966404
 C           6.0    -4.4055459651        0.7123524124       -3.3750966404
 C           6.0    -4.4055459651       -0.7123524124        3.3750966404
 C           6.0     4.4055459651       -0.7123524124       -3.3750966404
 C           6.0     3.3750966404        4.4055459651        0.7123524124
 C           6.0    -3.3750966404       -4.4055459651        0.7123524124
 C           6.0     3.3750966404       -4.4055459651       -0.7123524124
 C           6.0    -3.3750966404        4.4055459651       -0.7123524124
 C           6.0     0.7123524124        3.3750966404        4.4055459651
 H           1.0     1.9590464892       -4.6635352295       -5.4137697150
 H           1.0    -1.9590464892        4.6635352295       -5.4137697150
 H           1.0    -1.9590464892       -4.6635352295        5.4137697150
 H           1.0     5.4137697150        1.9590464892        4.6635352295
 H           1.0    -5.4137697150        1.9590464892       -4.6635352295
 H           1.0    -5.4137697150       -1.9590464892        4.6635352295
 H           1.0     5.4137697150       -1.9590464892       -4.6635352295
 H           1.0     4.6635352295        5.4137697150        1.9590464892
 H           1.0    -4.6635352295       -5.4137697150        1.9590464892
 H           1.0     4.6635352295       -5.4137697150       -1.9590464892
 H           1.0    -4.6635352295        5.4137697150       -1.9590464892
 H           1.0     1.9590464892        4.6635352295        5.4137697150
 H           1.0     0.0762365936       -1.9878214923       -5.7652656617
 H           1.0    -0.0762365936        1.9878214923       -5.7652656617
 H           1.0    -0.0762365936       -1.9878214923        5.7652656617
 H           1.0     5.7652656617        0.0762365936        1.9878214923
 H           1.0    -5.7652656617        0.0762365936       -1.9878214923
 H           1.0    -5.7652656617       -0.0762365936        1.9878214923
 H           1.0     5.7652656617       -0.0762365936       -1.9878214923
 H           1.0     1.9878214923        5.7652656617        0.0762365936
 H           1.0    -1.9878214923       -5.7652656617        0.0762365936
 H           1.0     1.9878214923       -5.7652656617       -0.0762365936
 H           1.0    -1.9878214923        5.7652656617       -0.0762365936
 H           1.0     0.0762365936        1.9878214923        5.7652656617
 H           1.0    -0.9138135986       -4.4613557784       -3.8102798089
 H           1.0     0.9138135986        4.4613557784       -3.8102798089
 H           1.0     0.9138135986       -4.4613557784        3.8102798089
 H           1.0     3.8102798089       -0.9138135986        4.4613557784
 H           1.0    -3.8102798089       -0.9138135986       -4.4613557784
 H           1.0    -3.8102798089        0.9138135986        4.4613557784
 H           1.0     3.8102798089        0.9138135986       -4.4613557784
 H           1.0     4.4613557784        3.8102798089       -0.9138135986
 H           1.0    -4.4613557784       -3.8102798089       -0.9138135986
 H           1.0     4.4613557784       -3.8102798089        0.9138135986
 H           1.0    -4.4613557784        3.8102798089        0.9138135986
 H           1.0    -0.9138135986        4.4613557784        3.8102798089

          INTERNUCLEAR DISTANCES (ANGS.)
          ------------------------------

                1 SI         2 C          3 C          4 C          5 C     

   1 SI      0.0000000    1.9959161 *  1.9959161 *  1.9959161 *  1.9959161 *
   2 C       1.9959161 *  0.0000000    3.2593174    3.2593174    3.2593174  
   3 C       1.9959161 *  3.2593174    0.0000000    3.2593174    3.2593174  
   4 C       1.9959161 *  3.2593174    3.2593174    0.0000000    3.2593174  
   5 C       1.9959161 *  3.2593174    3.2593174    3.2593174    0.0000000  
   6 C       2.9609138 *  1.5468499 *  3.5160695    3.8569664    4.6228873  
   7 C       2.9609138 *  3.5160695    1.5468499 *  4.6228873    3.8569664  
   8 C       2.9609138 *  3.8569664    4.6228873    1.5468499 *  3.5160695  
   9 C       2.9609138 *  3.5160695    4.6228873    3.8569664    1.5468499 *
  10 C       2.9609138 *  3.8569664    1.5468499 *  3.5160695    4.6228873  
  11 C       2.9609138 *  4.6228873    3.5160695    1.5468499 *  3.8569664  
  12 C       2.9609138 *  1.5468499 *  3.8569664    4.6228873    3.5160695  
  13 C       2.9609138 *  3.8569664    3.5160695    4.6228873    1.5468499 *
  14 C       2.9609138 *  3.5160695    3.8569664    1.5468499 *  4.6228873  
  15 C       2.9609138 *  1.5468499 *  4.6228873    3.5160695    3.8569664  
  16 C       2.9609138 *  4.6228873    1.5468499 *  3.8569664    3.5160695  
  17 C       2.9609138 *  4.6228873    3.8569664    3.5160695    1.5468499 *
  18 H       3.9207473    2.1625359 *  4.5640105    4.7602673    5.4089614  
  19 H       3.9207473    4.5640105    2.1625359 *  5.4089614    4.7602673  
  20 H       3.9207473    4.7602673    5.4089614    2.1625359 *  4.5640105  
  21 H       3.9207473    4.5640105    5.4089614    4.7602673    2.1625359 *
  22 H       3.9207473    4.7602673    2.1625359 *  4.5640105    5.4089614  
  23 H       3.9207473    5.4089614    4.5640105    2.1625359 *  4.7602673  
  24 H       3.9207473    2.1625359 *  4.7602673    5.4089614    4.5640105  
  25 H       3.9207473    4.7602673    4.5640105    5.4089614    2.1625359 *
  26 H       3.9207473    4.5640105    4.7602673    2.1625359 *  5.4089614  
  27 H       3.9207473    2.1625359 *  5.4089614    4.5640105    4.7602673  
  28 H       3.9207473    5.4089614    2.1625359 *  4.7602673    4.5640105  
  29 H       3.9207473    5.4089614    4.7602673    4.5640105    2.1625359 *
  30 H       3.2273537    2.2024875 *  3.1441292    4.3702852    4.8746365  
  31 H       3.2273537    3.1441292    2.2024875 *  4.8746365    4.3702852  
  32 H       3.2273537    4.3702852    4.8746365    2.2024875 *  3.1441292  
  33 H       3.2273537    3.1441292    4.8746365    4.3702852    2.2024875 *
  34 H       3.2273537    4.3702852    2.2024875 *  3.1441292    4.8746365  
  35 H       3.2273537    4.8746365    3.1441292    2.2024875 *  4.3702852  
  36 H       3.2273537    2.2024875 *  4.3702852    4.8746365    3.1441292  
  37 H       3.2273537    4.3702852    3.1441292    4.8746365    2.2024875 *
  38 H       3.2273537    3.1441292    4.3702852    2.2024875 *  4.8746365  
  39 H       3.2273537    2.2024875 *  4.8746365    3.1441292    4.3702852  
  40 H       3.2273537    4.8746365    2.2024875 *  4.3702852    3.1441292  
  41 H       3.2273537    4.8746365    4.3702852    3.1441292    2.2024875 *
  42 H       3.1421270    2.2097825 *  3.6791591    3.4566059    5.0059064  
  43 H       3.1421270    3.6791591    2.2097825 *  5.0059064    3.4566059  
  44 H       3.1421270    3.4566059    5.0059064    2.2097825 *  3.6791591  
  45 H       3.1421270    3.6791591    5.0059064    3.4566059    2.2097825 *
  46 H       3.1421270    3.4566059    2.2097825 *  3.6791591    5.0059064  
  47 H       3.1421270    5.0059064    3.6791591    2.2097825 *  3.4566059  
  48 H       3.1421270    2.2097825 *  3.4566059    5.0059064    3.6791591  
  49 H       3.1421270    3.4566059    3.6791591    5.0059064    2.2097825 *
  50 H       3.1421270    3.6791591    3.4566059    2.2097825 *  5.0059064  
  51 H       3.1421270    2.2097825 *  5.0059064    3.6791591    3.4566059  
  52 H       3.1421270    5.0059064    2.2097825 *  3.4566059    3.6791591  
  53 H       3.1421270    5.0059064    3.4566059    3.6791591    2.2097825 *

                6 C          7 C          8 C          9 C         10 C     

   1 SI      2.9609138 *  2.9609138 *  2.9609138 *  2.9609138 *  2.9609138 *
   2 C       1.5468499 *  3.5160695    3.8569664    3.5160695    3.8569664  
   3 C       3.5160695    1.5468499 *  4.6228873    4.6228873    1.5468499 *
   4 C       3.8569664    4.6228873    1.5468499 *  3.8569664    3.5160695  
   5 C       4.6228873    3.8569664    3.5160695    1.5468499 *  4.6228873  
   6 C       0.0000000    3.6507437    4.7231886    5.0448473    3.5086467  
   7 C       3.6507437    0.0000000    5.8736398    5.1256899    2.4702837 *
   8 C       4.7231886    5.8736398    0.0000000    3.5086467    5.0448473  
   9 C       5.0448473    5.1256899    3.5086467    0.0000000    5.8736398  
  10 C       3.5086467    2.4702837 *  5.0448473    5.8736398    0.0000000  
  11 C       5.1256899    5.0448473    2.4702837 *  4.7231886    3.6507437  
  12 C       2.4702837 *  3.5086467    5.1256899    3.6507437    4.7231886  
  13 C       5.1256899    3.5086467    5.0448473    2.4702837 *  5.0448473  
  14 C       3.5086467    5.1256899    2.4702837 *  5.1256899    3.5086467  
  15 C       2.4702837 *  5.0448473    3.5086467    3.5086467    5.1256899  
  16 C       5.0448473    2.4702837 *  5.1256899    5.0448473    2.4702837 *
  17 C       5.8736398    4.7231886    3.6507437    2.4702837 *  5.1256899  
  18 H       1.0884644 *  4.5142414    5.4280124    5.6035273    4.5387367  
  19 H       4.5142414    1.0884644 *  6.7476389    6.1111165    2.6854582 *
  20 H       5.4280124    6.7476389    1.0884644 *  4.5387367    5.6035273  
  21 H       6.0982860    5.8397486    4.3006523    1.0884644 *  6.7476389  
  22 H       4.3006523    2.6018673 *  6.0982860    6.7476389    1.0884644 *
  23 H       5.8397486    6.0982860    2.6018673 *  5.4280124    4.5142414  
  24 H       2.6018673 *  4.3006523    5.8397486    4.5142414    5.4280124  
  25 H       6.1111165    4.5387367    5.6035273    2.6018673 *  6.0982860  
  26 H       4.5387367    6.1111165    2.6854582 *  5.8397486    4.3006523  
  27 H       2.6854582 *  5.6035273    4.5387367    4.3006523    5.8397486  
  28 H       5.6035273    2.6854582 *  6.1111165    6.0982860    2.6018673 *
  29 H       6.7476389    5.4280124    4.5142414    2.6854582 *  6.1111165  
  30 H       1.0816483 *  2.9573198 *  5.4480029    5.5394542    3.0440446  
  31 H       2.9573198 *  1.0816483 *  6.0938372    5.4291476    2.7025704 *
  32 H       5.4480029    6.0938372    1.0816483 *  3.0440446    5.5394542  
  33 H       4.6831075    5.1228392    4.0892984    1.0816483 *  6.0938372  
  34 H       4.0892984    3.4400511    4.6831075    6.0938372    1.0816483 *
  35 H       5.1228392    4.6831075    3.4400511    5.4480029    2.9573198 *
  36 H       3.4400511    4.0892984    5.1228392    2.9573198 *  5.4480029  
  37 H       5.4291476    3.0440446    5.5394542    3.4400511    4.6831075  
  38 H       3.0440446    5.4291476    2.7025704 *  5.1228392    4.0892984  
  39 H       2.7025704 *  5.5394542    3.0440446    4.0892984    5.1228392  
  40 H       5.5394542    2.7025704 *  5.4291476    4.6831075    3.4400511  
  41 H       6.0938372    5.4480029    2.9573198 *  2.7025704 *  5.4291476  
  42 H       1.0817393 *  4.1601853    4.3867593    5.4659803    3.3110107  
  43 H       4.1601853    1.0817393 *  6.0695084    4.6698762    3.4514365  
  44 H       4.3867593    6.0695084    1.0817393 *  3.3110107    5.4659803  
  45 H       5.1381180    5.7354343    2.7248894 *  1.0817393 *  6.0695084  
  46 H       2.7248894 *  2.7998938 *  5.1381180    6.0695084    1.0817393 *
  47 H       5.7354343    5.1381180    2.7998938 *  4.3867593    4.1601853  
  48 H       2.7998938 *  2.7248894 *  5.7354343    4.1601853    4.3867593  
  49 H       4.6698762    3.3110107    5.4659803    2.7998938 *  5.1381180  
  50 H       3.3110107    4.6698762    3.4514365    5.7354343    2.7248894 *
  51 H       3.4514365    5.4659803    3.3110107    2.7248894 *  5.7354343  
  52 H       5.4659803    3.4514365    4.6698762    5.1381180    2.7998938 *
  53 H       6.0695084    4.3867593    4.1601853    3.4514365    4.6698762  

               11 C         12 C         13 C         14 C         15 C     

   1 SI      2.9609138 *  2.9609138 *  2.9609138 *  2.9609138 *  2.9609138 *
   2 C       4.6228873    1.5468499 *  3.8569664    3.5160695    1.5468499 *
   3 C       3.5160695    3.8569664    3.5160695    3.8569664    4.6228873  
   4 C       1.5468499 *  4.6228873    4.6228873    1.5468499 *  3.5160695  
   5 C       3.8569664    3.5160695    1.5468499 *  4.6228873    3.8569664  
   6 C       5.1256899    2.4702837 *  5.1256899    3.5086467    2.4702837 *
   7 C       5.0448473    3.5086467    3.5086467    5.1256899    5.0448473  
   8 C       2.4702837 *  5.1256899    5.0448473    2.4702837 *  3.5086467  
   9 C       4.7231886    3.6507437    2.4702837 *  5.1256899    3.5086467  
  10 C       3.6507437    4.7231886    5.0448473    3.5086467    5.1256899  
  11 C       0.0000000    5.8736398    5.1256899    2.4702837 *  5.0448473  
  12 C       5.8736398    0.0000000    3.5086467    5.0448473    2.4702837 *
  13 C       5.1256899    3.5086467    0.0000000    5.8736398    4.7231886  
  14 C       2.4702837 *  5.0448473    5.8736398    0.0000000    3.6507437  
  15 C       5.0448473    2.4702837 *  4.7231886    3.6507437    0.0000000  
  16 C       3.5086467    5.1256899    3.6507437    4.7231886    5.8736398  
  17 C       3.5086467    5.0448473    2.4702837 *  5.0448473    5.1256899  
  18 H       6.1111165    2.6854582 *  5.8397486    4.3006523    2.6018673 *
  19 H       5.6035273    4.5387367    4.3006523    5.8397486    6.0982860  
  20 H       2.6854582 *  6.1111165    6.0982860    2.6018673 *  4.3006523  
  21 H       5.4280124    4.5142414    2.6854582 *  6.1111165    4.5387367  
  22 H       4.5142414    5.4280124    5.6035273    4.5387367    6.1111165  
  23 H       1.0884644 *  6.7476389    6.1111165    2.6854582 *  5.6035273  
  24 H       6.7476389    1.0884644 *  4.5387367    5.6035273    2.6854582 *
  25 H       5.8397486    4.3006523    1.0884644 *  6.7476389    5.4280124  
  26 H       2.6018673 *  6.0982860    6.7476389    1.0884644 *  4.5142414  
  27 H       6.0982860    2.6018673 *  5.4280124    4.5142414    1.0884644 *
  28 H       4.3006523    5.8397486    4.5142414    5.4280124    6.7476389  
  29 H       4.5387367    5.6035273    2.6018673 *  6.0982860    5.8397486  
  30 H       5.4291476    2.7025704 *  5.1228392    4.0892984    3.4400511  
  31 H       5.5394542    3.0440446    4.0892984    5.1228392    4.6831075  
  32 H       2.7025704 *  5.4291476    4.6831075    3.4400511    4.0892984  
  33 H       5.4480029    2.9573198 *  2.7025704 *  5.4291476    3.0440446  
  34 H       2.9573198 *  5.4480029    5.5394542    3.0440446    5.4291476  
  35 H       1.0816483 *  6.0938372    5.4291476    2.7025704 *  5.5394542  
  36 H       6.0938372    1.0816483 *  3.0440446    5.5394542    2.7025704 *
  37 H       5.1228392    4.0892984    1.0816483 *  6.0938372    5.4480029  
  38 H       3.4400511    4.6831075    6.0938372    1.0816483 *  2.9573198 *
  39 H       4.6831075    3.4400511    5.4480029    2.9573198 *  1.0816483 *
  40 H       4.0892984    5.1228392    2.9573198 *  5.4480029    6.0938372  
  41 H       3.0440446    5.5394542    3.4400511    4.6831075    5.1228392  
  42 H       4.6698762    3.4514365    5.7354343    2.7248894 *  2.7998938 *
  43 H       5.4659803    3.3110107    2.7248894 *  5.7354343    5.1381180  
  44 H       3.4514365    4.6698762    5.1381180    2.7998938 *  2.7248894 *
  45 H       4.3867593    4.1601853    3.4514365    4.6698762    3.3110107  
  46 H       4.1601853    4.3867593    5.4659803    3.3110107    4.6698762  
  47 H       1.0817393 *  6.0695084    4.6698762    3.4514365    5.4659803  
  48 H       6.0695084    1.0817393 *  3.3110107    5.4659803    3.4514365  
  49 H       5.7354343    2.7248894 *  1.0817393 *  6.0695084    4.3867593  
  50 H       2.7998938 *  5.1381180    6.0695084    1.0817393 *  4.1601853  
  51 H       5.1381180    2.7998938 *  4.3867593    4.1601853    1.0817393 *
  52 H       2.7248894 *  5.7354343    4.1601853    4.3867593    6.0695084  
  53 H       3.3110107    5.4659803    2.7998938 *  5.1381180    5.7354343  

               16 C         17 C         18 H         19 H         20 H     

   1 SI      2.9609138 *  2.9609138 *  3.9207473    3.9207473    3.9207473  
   2 C       4.6228873    4.6228873    2.1625359 *  4.5640105    4.7602673  
   3 C       1.5468499 *  3.8569664    4.5640105    2.1625359 *  5.4089614  
   4 C       3.8569664    3.5160695    4.7602673    5.4089614    2.1625359 *
   5 C       3.5160695    1.5468499 *  5.4089614    4.7602673    4.5640105  
   6 C       5.0448473    5.8736398    1.0884644 *  4.5142414    5.4280124  
   7 C       2.4702837 *  4.7231886    4.5142414    1.0884644 *  6.7476389  
   8 C       5.1256899    3.6507437    5.4280124    6.7476389    1.0884644 *
   9 C       5.0448473    2.4702837 *  5.6035273    6.1111165    4.5387367  
  10 C       2.4702837 *  5.1256899    4.5387367    2.6854582 *  5.6035273  
  11 C       3.5086467    3.5086467    6.1111165    5.6035273    2.6854582 *
  12 C       5.1256899    5.0448473    2.6854582 *  4.5387367    6.1111165  
  13 C       3.6507437    2.4702837 *  5.8397486    4.3006523    6.0982860  
  14 C       4.7231886    5.0448473    4.3006523    5.8397486    2.6018673 *
  15 C       5.8736398    5.1256899    2.6018673 *  6.0982860    4.3006523  
  16 C       0.0000000    3.5086467    6.0982860    2.6018673 *  5.8397486  
  17 C       3.5086467    0.0000000    6.7476389    5.4280124    4.5142414  
  18 H       6.0982860    6.7476389    0.0000000    5.3534772    6.0932885  
  19 H       2.6018673 *  5.4280124    5.3534772    0.0000000    7.5624197  
  20 H       5.8397486    4.5142414    6.0932885    7.5624197    0.0000000  
  21 H       5.6035273    2.6018673 *  6.6378695    6.7607391    5.2593899  
  22 H       2.6854582 *  5.8397486    5.2593899    2.3554168 *  6.6378695  
  23 H       4.5387367    4.3006523    6.7607391    6.6378695    2.3554168 *
  24 H       6.1111165    6.0982860    2.3554168 *  5.2593899    6.7607391  
  25 H       4.5142414    2.6854582 *  6.7607391    5.2593899    6.6378695  
  26 H       5.4280124    5.6035273    5.2593899    6.7607391    2.3554168 *
  27 H       6.7476389    6.1111165    2.3554168 *  6.6378695    5.2593899  
  28 H       1.0884644 *  4.5387367    6.6378695    2.3554168 *  6.7607391  
  29 H       4.3006523    1.0884644 *  7.5624197    6.0932885    5.3534772  
  30 H       4.6831075    6.0938372    1.7413041 *  3.6855390    6.1773971  
  31 H       3.4400511    5.4480029    3.6855390    1.7413041 *  6.9553370  
  32 H       5.1228392    2.9573198 *  6.1773971    6.9553370    1.7413041 *
  33 H       5.5394542    3.4400511    5.0684102    6.1596745    5.1269481  
  34 H       2.7025704 *  5.1228392    5.1269481    3.6381748    5.0684102  
  35 H       3.0440446    4.0892984    6.1596745    5.0684102    3.6381748  
  36 H       5.4291476    4.6831075    3.6381748    5.1269481    6.1596745  
  37 H       2.9573198 *  2.7025704 *  6.2366830    3.6252213    6.5418576  
  38 H       5.4480029    5.5394542    3.6252213    6.2366830    2.8840839 *
  39 H       6.0938372    5.4291476    2.8840839 *  6.5418576    3.6252213  
  40 H       1.0816483 *  3.0440446    6.5418576    2.8840839 *  6.2366830  
  41 H       4.0892984    1.0816483 *  6.9553370    6.1773971    3.6855390  
  42 H       5.1381180    6.0695084    1.7443099 *  4.9337749    4.9135604  
  43 H       2.7998938 *  4.3867593    4.9337749    1.7443099 *  7.0322868  
  44 H       5.7354343    4.1601853    4.9135604    7.0322868    1.7443099 *
  45 H       5.4659803    2.7998938 *  5.6749315    6.7334566    3.6758828  
  46 H       3.4514365    5.7354343    3.6758828    3.1503152    5.6749315  
  47 H       3.3110107    2.7248894 *  6.7334566    5.6749315    3.1503152  
  48 H       4.6698762    5.1381180    3.1503152    3.6758828    6.7334566  
  49 H       4.1601853    3.4514365    5.2470452    4.1734346    6.5469603  
  50 H       4.3867593    5.4659803    4.1734346    5.2470452    3.6289333  
  51 H       6.0695084    4.6698762    3.6289333    6.5469603    4.1734346  
  52 H       1.0817393 *  3.3110107    6.5469603    3.6289333    5.2470452  
  53 H       2.7248894 *  1.0817393 *  7.0322868    4.9135604    4.9337749  

               21 H         22 H         23 H         24 H         25 H     

   1 SI      3.9207473    3.9207473    3.9207473    3.9207473    3.9207473  
   2 C       4.5640105    4.7602673    5.4089614    2.1625359 *  4.7602673  
   3 C       5.4089614    2.1625359 *  4.5640105    4.7602673    4.5640105  
   4 C       4.7602673    4.5640105    2.1625359 *  5.4089614    5.4089614  
   5 C       2.1625359 *  5.4089614    4.7602673    4.5640105    2.1625359 *
   6 C       6.0982860    4.3006523    5.8397486    2.6018673 *  6.1111165  
   7 C       5.8397486    2.6018673 *  6.0982860    4.3006523    4.5387367  
   8 C       4.3006523    6.0982860    2.6018673 *  5.8397486    5.6035273  
   9 C       1.0884644 *  6.7476389    5.4280124    4.5142414    2.6018673 *
  10 C       6.7476389    1.0884644 *  4.5142414    5.4280124    6.0982860  
  11 C       5.4280124    4.5142414    1.0884644 *  6.7476389    5.8397486  
  12 C       4.5142414    5.4280124    6.7476389    1.0884644 *  4.3006523  
  13 C       2.6854582 *  5.6035273    6.1111165    4.5387367    1.0884644 *
  14 C       6.1111165    4.5387367    2.6854582 *  5.6035273    6.7476389  
  15 C       4.5387367    6.1111165    5.6035273    2.6854582 *  5.4280124  
  16 C       5.6035273    2.6854582 *  4.5387367    6.1111165    4.5142414  
  17 C       2.6018673 *  5.8397486    4.3006523    6.0982860    2.6854582 *
  18 H       6.6378695    5.2593899    6.7607391    2.3554168 *  6.7607391  
  19 H       6.7607391    2.3554168 *  6.6378695    5.2593899    5.2593899  
  20 H       5.2593899    6.6378695    2.3554168 *  6.7607391    6.6378695  
  21 H       0.0000000    7.5624197    6.0932885    5.3534772    2.3554168 *
  22 H       7.5624197    0.0000000    5.3534772    6.0932885    6.6378695  
  23 H       6.0932885    5.3534772    0.0000000    7.5624197    6.7607391  
  24 H       5.3534772    6.0932885    7.5624197    0.0000000    5.2593899  
  25 H       2.3554168 *  6.6378695    6.7607391    5.2593899    0.0000000  
  26 H       6.7607391    5.2593899    2.3554168 *  6.6378695    7.5624197  
  27 H       5.2593899    6.7607391    6.6378695    2.3554168 *  6.0932885  
  28 H       6.6378695    2.3554168 *  5.2593899    6.7607391    5.3534772  
  29 H       2.3554168 *  6.7607391    5.2593899    6.6378695    2.3554168 *
  30 H       6.5418576    3.6252213    6.2366830    2.8840839 *  6.1596745  
  31 H       6.2366830    2.8840839 *  6.5418576    3.6252213    5.1269481  
  32 H       3.6252213    6.5418576    2.8840839 *  6.2366830    5.0684102  
  33 H       1.7413041 *  6.9553370    6.1773971    3.6855390    2.8840839 *
  34 H       6.9553370    1.7413041 *  3.6855390    6.1773971    6.5418576  
  35 H       6.1773971    3.6855390    1.7413041 *  6.9553370    6.2366830  
  36 H       3.6855390    6.1773971    6.9553370    1.7413041 *  3.6252213  
  37 H       3.6381748    5.0684102    6.1596745    5.1269481    1.7413041 *
  38 H       6.1596745    5.1269481    3.6381748    5.0684102    6.9553370  
  39 H       5.1269481    6.1596745    5.0684102    3.6381748    6.1773971  
  40 H       5.0684102    3.6381748    5.1269481    6.1596745    3.6855390  
  41 H       2.8840839 *  6.2366830    3.6252213    6.5418576    3.6381748  
  42 H       6.5469603    4.1734346    5.2470452    3.6289333    6.7334566  
  43 H       5.2470452    3.6289333    6.5469603    4.1734346    3.6758828  
  44 H       4.1734346    6.5469603    3.6289333    5.2470452    5.6749315  
  45 H       1.7443099 *  7.0322868    4.9135604    4.9337749    3.6289333  
  46 H       7.0322868    1.7443099 *  4.9337749    4.9135604    6.5469603  
  47 H       4.9135604    4.9337749    1.7443099 *  7.0322868    5.2470452  
  48 H       4.9337749    4.9135604    7.0322868    1.7443099 *  4.1734346  
  49 H       3.1503152    5.6749315    6.7334566    3.6758828    1.7443099 *
  50 H       6.7334566    3.6758828    3.1503152    5.6749315    7.0322868  
  51 H       3.6758828    6.7334566    5.6749315    3.1503152    4.9135604  
  52 H       5.6749315    3.1503152    3.6758828    6.7334566    4.9337749  
  53 H       3.6289333    5.2470452    4.1734346    6.5469603    3.1503152  

               26 H         27 H         28 H         29 H         30 H     

   1 SI      3.9207473    3.9207473    3.9207473    3.9207473    3.2273537  
   2 C       4.5640105    2.1625359 *  5.4089614    5.4089614    2.2024875 *
   3 C       4.7602673    5.4089614    2.1625359 *  4.7602673    3.1441292  
   4 C       2.1625359 *  4.5640105    4.7602673    4.5640105    4.3702852  
   5 C       5.4089614    4.7602673    4.5640105    2.1625359 *  4.8746365  
   6 C       4.5387367    2.6854582 *  5.6035273    6.7476389    1.0816483 *
   7 C       6.1111165    5.6035273    2.6854582 *  5.4280124    2.9573198 *
   8 C       2.6854582 *  4.5387367    6.1111165    4.5142414    5.4480029  
   9 C       5.8397486    4.3006523    6.0982860    2.6854582 *  5.5394542  
  10 C       4.3006523    5.8397486    2.6018673 *  6.1111165    3.0440446  
  11 C       2.6018673 *  6.0982860    4.3006523    4.5387367    5.4291476  
  12 C       6.0982860    2.6018673 *  5.8397486    5.6035273    2.7025704 *
  13 C       6.7476389    5.4280124    4.5142414    2.6018673 *  5.1228392  
  14 C       1.0884644 *  4.5142414    5.4280124    6.0982860    4.0892984  
  15 C       4.5142414    1.0884644 *  6.7476389    5.8397486    3.4400511  
  16 C       5.4280124    6.7476389    1.0884644 *  4.3006523    4.6831075  
  17 C       5.6035273    6.1111165    4.5387367    1.0884644 *  6.0938372  
  18 H       5.2593899    2.3554168 *  6.6378695    7.5624197    1.7413041 *
  19 H       6.7607391    6.6378695    2.3554168 *  6.0932885    3.6855390  
  20 H       2.3554168 *  5.2593899    6.7607391    5.3534772    6.1773971  
  21 H       6.7607391    5.2593899    6.6378695    2.3554168 *  6.5418576  
  22 H       5.2593899    6.7607391    2.3554168 *  6.7607391    3.6252213  
  23 H       2.3554168 *  6.6378695    5.2593899    5.2593899    6.2366830  
  24 H       6.6378695    2.3554168 *  6.7607391    6.6378695    2.8840839 *
  25 H       7.5624197    6.0932885    5.3534772    2.3554168 *  6.1596745  
  26 H       0.0000000    5.3534772    6.0932885    6.6378695    5.1269481  
  27 H       5.3534772    0.0000000    7.5624197    6.7607391    3.6381748  
  28 H       6.0932885    7.5624197    0.0000000    5.2593899    5.0684102  
  29 H       6.6378695    6.7607391    5.2593899    0.0000000    6.9553370  
  30 H       5.1269481    3.6381748    5.0684102    6.9553370    0.0000000  
  31 H       6.1596745    5.0684102    3.6381748    6.1773971    2.1053665 *
  32 H       3.6381748    5.1269481    6.1596745    3.6855390    6.1022283  
  33 H       6.2366830    3.6252213    6.5418576    3.6381748    5.2046875  
  34 H       3.6252213    6.2366830    2.8840839 *  6.1596745    3.8398207  
  35 H       2.8840839 *  6.5418576    3.6252213    5.1269481    5.2355842  
  36 H       6.5418576    2.8840839 *  6.2366830    5.0684102    3.7526202  
  37 H       6.9553370    6.1773971    3.6855390    2.8840839 *  5.2355842  
  38 H       1.7413041 *  3.6855390    6.1773971    6.5418576    3.8398207  
  39 H       3.6855390    1.7413041 *  6.9553370    6.2366830    3.7526202  
  40 H       6.1773971    6.9553370    1.7413041 *  3.6252213    5.2046875  
  41 H       5.0684102    6.1596745    5.1269481    1.7413041 *  6.4542031  
  42 H       3.6758828    3.1503152    5.6749315    7.0322868    1.7487319 *
  43 H       6.7334566    5.6749315    3.1503152    4.9135604    3.5935535  
  44 H       3.1503152    3.6758828    6.7334566    4.9337749    5.2522269  
  45 H       5.2470452    4.1734346    6.5469603    3.1503152    5.7891207  
  46 H       4.1734346    5.2470452    3.6289333    6.7334566    2.2425308 *
  47 H       3.6289333    6.5469603    4.1734346    3.6758828    5.9894890  
  48 H       6.5469603    3.6289333    5.2470452    5.6749315    2.5958151 *
  49 H       7.0322868    4.9135604    4.9337749    3.6289333    4.6248952  
  50 H       1.7443099 *  4.9337749    4.9135604    6.5469603    3.6450936  
  51 H       4.9337749    1.7443099 *  7.0322868    5.2470452    4.3366947  
  52 H       4.9135604    7.0322868    1.7443099 *  4.1734346    5.2604004  
  53 H       5.6749315    6.7334566    3.6758828    1.7443099 *  6.1316816  

               31 H         32 H         33 H         34 H         35 H     

   1 SI      3.2273537    3.2273537    3.2273537    3.2273537    3.2273537  
   2 C       3.1441292    4.3702852    3.1441292    4.3702852    4.8746365  
   3 C       2.2024875 *  4.8746365    4.8746365    2.2024875 *  3.1441292  
   4 C       4.8746365    2.2024875 *  4.3702852    3.1441292    2.2024875 *
   5 C       4.3702852    3.1441292    2.2024875 *  4.8746365    4.3702852  
   6 C       2.9573198 *  5.4480029    4.6831075    4.0892984    5.1228392  
   7 C       1.0816483 *  6.0938372    5.1228392    3.4400511    4.6831075  
   8 C       6.0938372    1.0816483 *  4.0892984    4.6831075    3.4400511  
   9 C       5.4291476    3.0440446    1.0816483 *  6.0938372    5.4480029  
  10 C       2.7025704 *  5.5394542    6.0938372    1.0816483 *  2.9573198 *
  11 C       5.5394542    2.7025704 *  5.4480029    2.9573198 *  1.0816483 *
  12 C       3.0440446    5.4291476    2.9573198 *  5.4480029    6.0938372  
  13 C       4.0892984    4.6831075    2.7025704 *  5.5394542    5.4291476  
  14 C       5.1228392    3.4400511    5.4291476    3.0440446    2.7025704 *
  15 C       4.6831075    4.0892984    3.0440446    5.4291476    5.5394542  
  16 C       3.4400511    5.1228392    5.5394542    2.7025704 *  3.0440446  
  17 C       5.4480029    2.9573198 *  3.4400511    5.1228392    4.0892984  
  18 H       3.6855390    6.1773971    5.0684102    5.1269481    6.1596745  
  19 H       1.7413041 *  6.9553370    6.1596745    3.6381748    5.0684102  
  20 H       6.9553370    1.7413041 *  5.1269481    5.0684102    3.6381748  
  21 H       6.2366830    3.6252213    1.7413041 *  6.9553370    6.1773971  
  22 H       2.8840839 *  6.5418576    6.9553370    1.7413041 *  3.6855390  
  23 H       6.5418576    2.8840839 *  6.1773971    3.6855390    1.7413041 *
  24 H       3.6252213    6.2366830    3.6855390    6.1773971    6.9553370  
  25 H       5.1269481    5.0684102    2.8840839 *  6.5418576    6.2366830  
  26 H       6.1596745    3.6381748    6.2366830    3.6252213    2.8840839 *
  27 H       5.0684102    5.1269481    3.6252213    6.2366830    6.5418576  
  28 H       3.6381748    6.1596745    6.5418576    2.8840839 *  3.6252213  
  29 H       6.1773971    3.6855390    3.6381748    6.1596745    5.1269481  
  30 H       2.1053665 *  6.1022283    5.2046875    3.8398207    5.2355842  
  31 H       0.0000000    6.4542031    5.2355842    3.7526202    5.2046875  
  32 H       6.4542031    0.0000000    3.8398207    5.2046875    3.7526202  
  33 H       5.2355842    3.8398207    0.0000000    6.4542031    6.1022283  
  34 H       3.7526202    5.2046875    6.4542031    0.0000000    2.1053665 *
  35 H       5.2046875    3.7526202    6.1022283    2.1053665 *  0.0000000  
  36 H       3.8398207    5.2355842    2.1053665 *  6.1022283    6.4542031  
  37 H       3.8398207    5.2046875    3.7526202    5.2046875    5.2355842  
  38 H       5.2355842    3.7526202    5.2355842    3.8398207    3.7526202  
  39 H       5.2046875    3.8398207    3.8398207    5.2355842    5.2046875  
  40 H       3.7526202    5.2355842    5.2046875    3.7526202    3.8398207  
  41 H       6.1022283    2.1053665 *  3.7526202    5.2355842    3.8398207  
  42 H       3.5935535    5.2522269    5.2604004    3.6450936    4.6248952  
  43 H       1.7487319 *  6.1316816    4.6248952    4.3366947    5.2604004  
  44 H       6.1316816    1.7487319 *  3.6450936    5.2604004    4.3366947  
  45 H       5.9894890    2.2425308 *  1.7487319 *  6.1316816    5.2522269  
  46 H       2.5958151 *  5.7891207    6.1316816    1.7487319 *  3.5935535  
  47 H       5.7891207    2.5958151 *  5.2522269    3.5935535    1.7487319 *
  48 H       2.2425308 *  5.9894890    3.5935535    5.2522269    6.1316816  
  49 H       3.6450936    5.2604004    2.5958151 *  5.7891207    5.9894890  
  50 H       4.6248952    4.3366947    5.9894890    2.2425308 *  2.5958151 *
  51 H       5.2604004    3.6450936    2.2425308 *  5.9894890    5.7891207  
  52 H       4.3366947    4.6248952    5.7891207    2.5958151 *  2.2425308 *
  53 H       5.2522269    3.5935535    4.3366947    4.6248952    3.6450936  

               36 H         37 H         38 H         39 H         40 H     

   1 SI      3.2273537    3.2273537    3.2273537    3.2273537    3.2273537  
   2 C       2.2024875 *  4.3702852    3.1441292    2.2024875 *  4.8746365  
   3 C       4.3702852    3.1441292    4.3702852    4.8746365    2.2024875 *
   4 C       4.8746365    4.8746365    2.2024875 *  3.1441292    4.3702852  
   5 C       3.1441292    2.2024875 *  4.8746365    4.3702852    3.1441292  
   6 C       3.4400511    5.4291476    3.0440446    2.7025704 *  5.5394542  
   7 C       4.0892984    3.0440446    5.4291476    5.5394542    2.7025704 *
   8 C       5.1228392    5.5394542    2.7025704 *  3.0440446    5.4291476  
   9 C       2.9573198 *  3.4400511    5.1228392    4.0892984    4.6831075  
  10 C       5.4480029    4.6831075    4.0892984    5.1228392    3.4400511  
  11 C       6.0938372    5.1228392    3.4400511    4.6831075    4.0892984  
  12 C       1.0816483 *  4.0892984    4.6831075    3.4400511    5.1228392  
  13 C       3.0440446    1.0816483 *  6.0938372    5.4480029    2.9573198 *
  14 C       5.5394542    6.0938372    1.0816483 *  2.9573198 *  5.4480029  
  15 C       2.7025704 *  5.4480029    2.9573198 *  1.0816483 *  6.0938372  
  16 C       5.4291476    2.9573198 *  5.4480029    6.0938372    1.0816483 *
  17 C       4.6831075    2.7025704 *  5.5394542    5.4291476    3.0440446  
  18 H       3.6381748    6.2366830    3.6252213    2.8840839 *  6.5418576  
  19 H       5.1269481    3.6252213    6.2366830    6.5418576    2.8840839 *
  20 H       6.1596745    6.5418576    2.8840839 *  3.6252213    6.2366830  
  21 H       3.6855390    3.6381748    6.1596745    5.1269481    5.0684102  
  22 H       6.1773971    5.0684102    5.1269481    6.1596745    3.6381748  
  23 H       6.9553370    6.1596745    3.6381748    5.0684102    5.1269481  
  24 H       1.7413041 *  5.1269481    5.0684102    3.6381748    6.1596745  
  25 H       3.6252213    1.7413041 *  6.9553370    6.1773971    3.6855390  
  26 H       6.5418576    6.9553370    1.7413041 *  3.6855390    6.1773971  
  27 H       2.8840839 *  6.1773971    3.6855390    1.7413041 *  6.9553370  
  28 H       6.2366830    3.6855390    6.1773971    6.9553370    1.7413041 *
  29 H       5.0684102    2.8840839 *  6.5418576    6.2366830    3.6252213  
  30 H       3.7526202    5.2355842    3.8398207    3.7526202    5.2046875  
  31 H       3.8398207    3.8398207    5.2355842    5.2046875    3.7526202  
  32 H       5.2355842    5.2046875    3.7526202    3.8398207    5.2355842  
  33 H       2.1053665 *  3.7526202    5.2355842    3.8398207    5.2046875  
  34 H       6.1022283    5.2046875    3.8398207    5.2355842    3.7526202  
  35 H       6.4542031    5.2355842    3.7526202    5.2046875    3.8398207  
  36 H       0.0000000    3.8398207    5.2046875    3.7526202    5.2355842  
  37 H       3.8398207    0.0000000    6.4542031    6.1022283    2.1053665 *
  38 H       5.2046875    6.4542031    0.0000000    2.1053665 *  6.1022283  
  39 H       3.7526202    6.1022283    2.1053665 *  0.0000000    6.4542031  
  40 H       5.2355842    2.1053665 *  6.1022283    6.4542031    0.0000000  
  41 H       5.2046875    3.7526202    5.2046875    5.2355842    3.8398207  
  42 H       4.3366947    5.9894890    2.2425308 *  2.5958151 *  5.7891207  
  43 H       3.6450936    2.2425308 *  5.9894890    5.7891207    2.5958151 *
  44 H       4.6248952    5.7891207    2.5958151 *  2.2425308 *  5.9894890  
  45 H       3.5935535    4.3366947    4.6248952    3.6450936    5.2604004  
  46 H       5.2522269    5.2604004    3.6450936    4.6248952    4.3366947  
  47 H       6.1316816    4.6248952    4.3366947    5.2604004    3.6450936  
  48 H       1.7487319 *  3.6450936    5.2604004    4.3366947    4.6248952  
  49 H       2.2425308 *  1.7487319 *  6.1316816    5.2522269    3.5935535  
  50 H       5.7891207    6.1316816    1.7487319 *  3.5935535    5.2522269  
  51 H       2.5958151 *  5.2522269    3.5935535    1.7487319 *  6.1316816  
  52 H       5.9894890    3.5935535    5.2522269    6.1316816    1.7487319 *
  53 H       5.2604004    2.5958151 *  5.7891207    5.9894890    2.2425308 *

               41 H         42 H         43 H         44 H         45 H     

   1 SI      3.2273537    3.1421270    3.1421270    3.1421270    3.1421270  
   2 C       4.8746365    2.2097825 *  3.6791591    3.4566059    3.6791591  
   3 C       4.3702852    3.6791591    2.2097825 *  5.0059064    5.0059064  
   4 C       3.1441292    3.4566059    5.0059064    2.2097825 *  3.4566059  
   5 C       2.2024875 *  5.0059064    3.4566059    3.6791591    2.2097825 *
   6 C       6.0938372    1.0817393 *  4.1601853    4.3867593    5.1381180  
   7 C       5.4480029    4.1601853    1.0817393 *  6.0695084    5.7354343  
   8 C       2.9573198 *  4.3867593    6.0695084    1.0817393 *  2.7248894 *
   9 C       2.7025704 *  5.4659803    4.6698762    3.3110107    1.0817393 *
  10 C       5.4291476    3.3110107    3.4514365    5.4659803    6.0695084  
  11 C       3.0440446    4.6698762    5.4659803    3.4514365    4.3867593  
  12 C       5.5394542    3.4514365    3.3110107    4.6698762    4.1601853  
  13 C       3.4400511    5.7354343    2.7248894 *  5.1381180    3.4514365  
  14 C       4.6831075    2.7248894 *  5.7354343    2.7998938 *  4.6698762  
  15 C       5.1228392    2.7998938 *  5.1381180    2.7248894 *  3.3110107  
  16 C       4.0892984    5.1381180    2.7998938 *  5.7354343    5.4659803  
  17 C       1.0816483 *  6.0695084    4.3867593    4.1601853    2.7998938 *
  18 H       6.9553370    1.7443099 *  4.9337749    4.9135604    5.6749315  
  19 H       6.1773971    4.9337749    1.7443099 *  7.0322868    6.7334566  
  20 H       3.6855390    4.9135604    7.0322868    1.7443099 *  3.6758828  
  21 H       2.8840839 *  6.5469603    5.2470452    4.1734346    1.7443099 *
  22 H       6.2366830    4.1734346    3.6289333    6.5469603    7.0322868  
  23 H       3.6252213    5.2470452    6.5469603    3.6289333    4.9135604  
  24 H       6.5418576    3.6289333    4.1734346    5.2470452    4.9337749  
  25 H       3.6381748    6.7334566    3.6758828    5.6749315    3.6289333  
  26 H       5.0684102    3.6758828    6.7334566    3.1503152    5.2470452  
  27 H       6.1596745    3.1503152    5.6749315    3.6758828    4.1734346  
  28 H       5.1269481    5.6749315    3.1503152    6.7334566    6.5469603  
  29 H       1.7413041 *  7.0322868    4.9135604    4.9337749    3.1503152  
  30 H       6.4542031    1.7487319 *  3.5935535    5.2522269    5.7891207  
  31 H       6.1022283    3.5935535    1.7487319 *  6.1316816    5.9894890  
  32 H       2.1053665 *  5.2522269    6.1316816    1.7487319 *  2.2425308 *
  33 H       3.7526202    5.2604004    4.6248952    3.6450936    1.7487319 *
  34 H       5.2355842    3.6450936    4.3366947    5.2604004    6.1316816  
  35 H       3.8398207    4.6248952    5.2604004    4.3366947    5.2522269  
  36 H       5.2046875    4.3366947    3.6450936    4.6248952    3.5935535  
  37 H       3.7526202    5.9894890    2.2425308 *  5.7891207    4.3366947  
  38 H       5.2046875    2.2425308 *  5.9894890    2.5958151 *  4.6248952  
  39 H       5.2355842    2.5958151 *  5.7891207    2.2425308 *  3.6450936  
  40 H       3.8398207    5.7891207    2.5958151 *  5.9894890    5.2604004  
  41 H       0.0000000    6.1316816    5.2522269    3.5935535    2.5958151 *
  42 H       6.1316816    0.0000000    4.8197272    4.1469791    5.3789525  
  43 H       5.2522269    4.8197272    0.0000000    6.2093874    5.4405474  
  44 H       3.5935535    4.1469791    6.2093874    0.0000000    2.4478936 *
  45 H       2.5958151 *  5.3789525    5.4405474    2.4478936 *  0.0000000  
  46 H       5.9894890    2.4478936 *  3.8024765    5.3789525    6.2093874  
  47 H       2.2425308 *  5.4405474    5.3789525    3.8024765    4.1469791  
  48 H       5.7891207    3.8024765    2.4478936 *  5.4405474    4.8197272  
  49 H       4.3366947    5.4405474    2.4478936 *  5.3789525    3.8024765  
  50 H       5.2604004    2.4478936 *  5.4405474    3.8024765    5.4405474  
  51 H       4.6248952    3.8024765    5.3789525    2.4478936 *  2.4478936 *
  52 H       3.6450936    5.3789525    3.8024765    5.4405474    5.3789525  
  53 H       1.7487319 *  6.2093874    4.1469791    4.8197272    3.8024765  

               46 H         47 H         48 H         49 H         50 H     

   1 SI      3.1421270    3.1421270    3.1421270    3.1421270    3.1421270  
   2 C       3.4566059    5.0059064    2.2097825 *  3.4566059    3.6791591  
   3 C       2.2097825 *  3.6791591    3.4566059    3.6791591    3.4566059  
   4 C       3.6791591    2.2097825 *  5.0059064    5.0059064    2.2097825 *
   5 C       5.0059064    3.4566059    3.6791591    2.2097825 *  5.0059064  
   6 C       2.7248894 *  5.7354343    2.7998938 *  4.6698762    3.3110107  
   7 C       2.7998938 *  5.1381180    2.7248894 *  3.3110107    4.6698762  
   8 C       5.1381180    2.7998938 *  5.7354343    5.4659803    3.4514365  
   9 C       6.0695084    4.3867593    4.1601853    2.7998938 *  5.7354343  
  10 C       1.0817393 *  4.1601853    4.3867593    5.1381180    2.7248894 *
  11 C       4.1601853    1.0817393 *  6.0695084    5.7354343    2.7998938 *
  12 C       4.3867593    6.0695084    1.0817393 *  2.7248894 *  5.1381180  
  13 C       5.4659803    4.6698762    3.3110107    1.0817393 *  6.0695084  
  14 C       3.3110107    3.4514365    5.4659803    6.0695084    1.0817393 *
  15 C       4.6698762    5.4659803    3.4514365    4.3867593    4.1601853  
  16 C       3.4514365    3.3110107    4.6698762    4.1601853    4.3867593  
  17 C       5.7354343    2.7248894 *  5.1381180    3.4514365    5.4659803  
  18 H       3.6758828    6.7334566    3.1503152    5.2470452    4.1734346  
  19 H       3.1503152    5.6749315    3.6758828    4.1734346    5.2470452  
  20 H       5.6749315    3.1503152    6.7334566    6.5469603    3.6289333  
  21 H       7.0322868    4.9135604    4.9337749    3.1503152    6.7334566  
  22 H       1.7443099 *  4.9337749    4.9135604    5.6749315    3.6758828  
  23 H       4.9337749    1.7443099 *  7.0322868    6.7334566    3.1503152  
  24 H       4.9135604    7.0322868    1.7443099 *  3.6758828    5.6749315  
  25 H       6.5469603    5.2470452    4.1734346    1.7443099 *  7.0322868  
  26 H       4.1734346    3.6289333    6.5469603    7.0322868    1.7443099 *
  27 H       5.2470452    6.5469603    3.6289333    4.9135604    4.9337749  
  28 H       3.6289333    4.1734346    5.2470452    4.9337749    4.9135604  
  29 H       6.7334566    3.6758828    5.6749315    3.6289333    6.5469603  
  30 H       2.2425308 *  5.9894890    2.5958151 *  4.6248952    3.6450936  
  31 H       2.5958151 *  5.7891207    2.2425308 *  3.6450936    4.6248952  
  32 H       5.7891207    2.5958151 *  5.9894890    5.2604004    4.3366947  
  33 H       6.1316816    5.2522269    3.5935535    2.5958151 *  5.9894890  
  34 H       1.7487319 *  3.5935535    5.2522269    5.7891207    2.2425308 *
  35 H       3.5935535    1.7487319 *  6.1316816    5.9894890    2.5958151 *
  36 H       5.2522269    6.1316816    1.7487319 *  2.2425308 *  5.7891207  
  37 H       5.2604004    4.6248952    3.6450936    1.7487319 *  6.1316816  
  38 H       3.6450936    4.3366947    5.2604004    6.1316816    1.7487319 *
  39 H       4.6248952    5.2604004    4.3366947    5.2522269    3.5935535  
  40 H       4.3366947    3.6450936    4.6248952    3.5935535    5.2522269  
  41 H       5.9894890    2.2425308 *  5.7891207    4.3366947    5.2604004  
  42 H       2.4478936 *  5.4405474    3.8024765    5.4405474    2.4478936 *
  43 H       3.8024765    5.3789525    2.4478936 *  2.4478936 *  5.4405474  
  44 H       5.3789525    3.8024765    5.4405474    5.3789525    3.8024765  
  45 H       6.2093874    4.1469791    4.8197272    3.8024765    5.4405474  
  46 H       0.0000000    4.8197272    4.1469791    5.3789525    2.4478936 *
  47 H       4.8197272    0.0000000    6.2093874    5.4405474    3.8024765  
  48 H       4.1469791    6.2093874    0.0000000    2.4478936 *  5.3789525  
  49 H       5.3789525    5.4405474    2.4478936 *  0.0000000    6.2093874  
  50 H       2.4478936 *  3.8024765    5.3789525    6.2093874    0.0000000  
  51 H       5.4405474    5.3789525    3.8024765    4.1469791    4.8197272  
  52 H       3.8024765    2.4478936 *  5.4405474    4.8197272    4.1469791  
  53 H       5.4405474    2.4478936 *  5.3789525    3.8024765    5.3789525  

               51 H         52 H         53 H     

   1 SI      3.1421270    3.1421270    3.1421270  
   2 C       2.2097825 *  5.0059064    5.0059064  
   3 C       5.0059064    2.2097825 *  3.4566059  
   4 C       3.6791591    3.4566059    3.6791591  
   5 C       3.4566059    3.6791591    2.2097825 *
   6 C       3.4514365    5.4659803    6.0695084  
   7 C       5.4659803    3.4514365    4.3867593  
   8 C       3.3110107    4.6698762    4.1601853  
   9 C       2.7248894 *  5.1381180    3.4514365  
  10 C       5.7354343    2.7998938 *  4.6698762  
  11 C       5.1381180    2.7248894 *  3.3110107  
  12 C       2.7998938 *  5.7354343    5.4659803  
  13 C       4.3867593    4.1601853    2.7998938 *
  14 C       4.1601853    4.3867593    5.1381180  
  15 C       1.0817393 *  6.0695084    5.7354343  
  16 C       6.0695084    1.0817393 *  2.7248894 *
  17 C       4.6698762    3.3110107    1.0817393 *
  18 H       3.6289333    6.5469603    7.0322868  
  19 H       6.5469603    3.6289333    4.9135604  
  20 H       4.1734346    5.2470452    4.9337749  
  21 H       3.6758828    5.6749315    3.6289333  
  22 H       6.7334566    3.1503152    5.2470452  
  23 H       5.6749315    3.6758828    4.1734346  
  24 H       3.1503152    6.7334566    6.5469603  
  25 H       4.9135604    4.9337749    3.1503152  
  26 H       4.9337749    4.9135604    5.6749315  
  27 H       1.7443099 *  7.0322868    6.7334566  
  28 H       7.0322868    1.7443099 *  3.6758828  
  29 H       5.2470452    4.1734346    1.7443099 *
  30 H       4.3366947    5.2604004    6.1316816  
  31 H       5.2604004    4.3366947    5.2522269  
  32 H       3.6450936    4.6248952    3.5935535  
  33 H       2.2425308 *  5.7891207    4.3366947  
  34 H       5.9894890    2.5958151 *  4.6248952  
  35 H       5.7891207    2.2425308 *  3.6450936  
  36 H       2.5958151 *  5.9894890    5.2604004  
  37 H       5.2522269    3.5935535    2.5958151 *
  38 H       3.5935535    5.2522269    5.7891207  
  39 H       1.7487319 *  6.1316816    5.9894890  
  40 H       6.1316816    1.7487319 *  2.2425308 *
  41 H       4.6248952    3.6450936    1.7487319 *
  42 H       3.8024765    5.3789525    6.2093874  
  43 H       5.3789525    3.8024765    4.1469791  
  44 H       2.4478936 *  5.4405474    4.8197272  
  45 H       2.4478936 *  5.3789525    3.8024765  
  46 H       5.4405474    3.8024765    5.4405474  
  47 H       5.3789525    2.4478936 *  2.4478936 *
  48 H       3.8024765    5.4405474    5.3789525  
  49 H       4.1469791    4.8197272    3.8024765  
  50 H       4.8197272    4.1469791    5.3789525  
  51 H       0.0000000    6.2093874    5.4405474  
  52 H       6.2093874    0.0000000    2.4478936 *
  53 H       5.4405474    2.4478936 *  0.0000000  

  * ... LESS THAN  3.000


     ATOMIC BASIS SET
     ----------------
 THE CONTRACTED PRIMITIVE FUNCTIONS HAVE BEEN UNNORMALIZED
 THE CONTRACTED BASIS FUNCTIONS ARE NOW NORMALIZED TO UNITY

  SHELL TYPE  PRIMITIVE        EXPONENT          CONTRACTION COEFFICIENT(S)

 SI        

      1   S       1         16192.1000000    0.001949239405
      1   S       2          2436.0900000    0.014855895466
      1   S       3           556.0010000    0.072568877851
      1   S       4           156.8130000    0.245654925022
      1   S       5            50.1692000    0.486059851646
      1   S       6            17.0300000    0.325719900585

      2   L       7           293.3500000   -0.002829912441    0.004433341604
      2   L       8            70.1173000   -0.036073731114    0.032440211739
      2   L       9            22.4301000   -0.116808100749    0.133719048387
      2   L      10             8.1942500    0.093576880711    0.326780118247
      2   L      11             3.1476800    0.601705518979    0.451139163247
      2   L      12             1.2151500    0.422072364043    0.264105095568

      3   L      13             1.6537000   -0.240599186106   -0.015177406538
      3   L      14             0.5407600    0.073795050368    0.275139118516
      3   L      15             0.2044060    1.040936478740    0.783008337279

      4   L      16             0.0723837    1.000000000000    1.000000000000

      5   D      17             0.3950000    1.000000000000

 C         

     18   S      18          3047.5248800    0.001834737132
     18   S      19           457.3695180    0.014037322813
     18   S      20           103.9486850    0.068842622264
     18   S      21            29.2101553    0.232184443216
     18   S      22             9.2866630    0.467941348435
     18   S      23             3.1639270    0.362311985337

     19   L      24             7.8682723   -0.119332419775    0.068999066591
     19   L      25             1.8812885   -0.160854151696    0.316423960957
     19   L      26             0.5442493    1.143456437840    0.744308290898

     20   L      27             0.1687145    1.000000000000    1.000000000000

     21   D      28             0.8000000    1.000000000000

 C         

     66   S      29          3047.5248800    0.001834737132
     66   S      30           457.3695180    0.014037322813
     66   S      31           103.9486850    0.068842622264
     66   S      32            29.2101553    0.232184443216
     66   S      33             9.2866630    0.467941348435
     66   S      34             3.1639270    0.362311985337

     67   L      35             7.8682723   -0.119332419775    0.068999066591
     67   L      36             1.8812885   -0.160854151696    0.316423960957
     67   L      37             0.5442493    1.143456437840    0.744308290898

     68   L      38             0.1687145    1.000000000000    1.000000000000

     69   D      39             0.8000000    1.000000000000

 H         

     92   S      40            18.7311370    0.033494604338
     92   S      41             2.8253944    0.234726953484
     92   S      42             0.6401217    0.813757326146

     93   S      43             0.1612778    1.000000000000

 H         

    116   S      44            18.7311370    0.033494604338
    116   S      45             2.8253944    0.234726953484
    116   S      46             0.6401217    0.813757326146

    117   S      47             0.1612778    1.000000000000

 H         

    140   S      48            18.7311370    0.033494604338
    140   S      49             2.8253944    0.234726953484
    140   S      50             0.6401217    0.813757326146

    141   S      51             0.1612778    1.000000000000

 TOTAL NUMBER OF BASIS SET SHELLS             =  141
 NUMBER OF CARTESIAN GAUSSIAN BASIS FUNCTIONS =  331
 NUMBER OF ELECTRONS                          =  146
 CHARGE OF MOLECULE                           =    0
 SPIN MULTIPLICITY                            =    1
 NUMBER OF OCCUPIED ORBITALS (ALPHA)          =   73
 NUMBER OF OCCUPIED ORBITALS (BETA )          =   73
 TOTAL NUMBER OF ATOMS                        =   53
 THE NUCLEAR REPULSION ENERGY IS     1646.5665782459

     $CONTRL OPTIONS
     ---------------
 SCFTYP=RHF          RUNTYP=HESSIAN      EXETYP=RUN     
 MPLEVL=       0     CITYP =NONE         CCTYP =NONE         VBTYP =NONE    
 DFTTYP=NONE         TDDFT =NONE    
 MULT  =       1     ICHARG=       0     NZVAR =       0     COORD =UNIQUE  
 PP    =NONE         RELWFN=NONE         LOCAL =NONE         NUMGRD=       F
 ISPHER=      -1     NOSYM =       0     MAXIT =      30     UNITS =ANGS    
 PLTORB=       F     MOLPLT=       T     AIMPAC=       F     FRIEND=        
 NPRINT=       7     IREST =       0     GEOM  =INPUT   
 NORMF =       0     NORMP =       0     ITOL  =      20     ICUT  =       9
 INTTYP=BEST         GRDTYP=BEST         QMTTOL= 1.0E-06

     $SYSTEM OPTIONS
     ---------------
  REPLICATED MEMORY=    25000000 WORDS (ON EVERY NODE).
 DISTRIBUTED MEMDDI=           0 MILLION WORDS IN AGGREGATE,
 MEMDDI DISTRIBUTED OVER   6 PROCESSORS IS           0 WORDS/PROCESSOR.
 TOTAL MEMORY REQUESTED ON EACH PROCESSOR=    25000000 WORDS.
 TIMLIM=      525600.00 MINUTES, OR     365.0 DAYS.
 PARALL= T  BALTYP=  DLB     KDIAG=    0  COREFL= F
 MXSEQ2=     300 MXSEQ3=     150  mem10=         0

          ----------------
          PROPERTIES INPUT
          ----------------

     MOMENTS            FIELD           POTENTIAL          DENSITY
 IEMOM =       1   IEFLD =       0   IEPOT =       0   IEDEN =       0
 WHERE =COMASS     WHERE =NUCLEI     WHERE =NUCLEI     WHERE =NUCLEI  
 OUTPUT=BOTH       OUTPUT=BOTH       OUTPUT=BOTH       OUTPUT=BOTH    
 IEMINT=       0   IEFINT=       0                     IEDINT=       0
                                                       MORB  =       0
          EXTRAPOLATION IN EFFECT
          DIIS IN EFFECT
 ORBITAL PRINTING OPTION: NPREO=     1   331     2     1

     -------------------------------
     INTEGRAL TRANSFORMATION OPTIONS
     -------------------------------
     NWORD  =            0
     CUTOFF = 1.0E-09     MPTRAN =       0
     DIRTRF =       T     AOINTS =DUP     

          ----------------------
          INTEGRAL INPUT OPTIONS
          ----------------------
 NOPK  =       1 NORDER=       0 SCHWRZ=       T

     --------------------------------
     THE POINT GROUP IS T  , ORDER=12
     --------------------------------
 .. THE CHARACTERS OF THE -E- REPRESENTATIONS ARE COMPLEX NUMBERS ..

     DIMENSIONS OF THE SYMMETRY SUBSPACES ARE
 A   =   33     E   =   26     T   =   82

 ..... DONE SETTING UP THE RUN .....
 CPU     0: STEP CPU TIME=     0.03 TOTAL CPU TIME=        0.0 (    0.0 MIN)
 TOTAL WALL CLOCK TIME=        0.0 SECONDS, CPU UTILIZATION IS  75.00%

     ---------------------------------
     HESSIAN MATRIX CONTROL PARAMETERS
     ---------------------------------
     METHOD=ANALYTIC   NVIB  =       2   VIBSIZ= 0.01000
     RDHESS=       F   PURIFY=       F   PRTIFC=       F
     VIBANL=       T   DECOMP=       F   PROJCT=       F
     SCLFAC= 1.00000   PRTSCN=       F   NPRT  =       0
     PULCOR=       F   NPUN  =       0   REDOVB=       T
     HSSTYP=GENERAL 
     THERMOCHEMISTRY WILL BE PRINTED FOR    1 TEMPERATURES:
      298.15000
 Old integral subroutine is used

     ------------------------------
     CPHF RESPONSE SOLUTION OPTIONS
     ------------------------------
     POLAR  =       F     NWORD  =       0
     CPHF   =AO      

          ********************
          1 ELECTRON INTEGRALS
          ********************
 ...... END OF ONE-ELECTRON INTEGRALS ......
 CPU     0: STEP CPU TIME=     0.03 TOTAL CPU TIME=        0.1 (    0.0 MIN)
 TOTAL WALL CLOCK TIME=        0.1 SECONDS, CPU UTILIZATION IS  75.00%

          -------------
          GUESS OPTIONS
          -------------
          GUESS =HUCKEL            NORB  =       0          NORDER=       0
          MIX   =       F          PRTMO =       F          PUNMO =       F
          TOLZ  = 1.0E-08          TOLE  = 1.0E-05
          SYMDEN=       F          PURIFY=       F

 INITIAL GUESS ORBITALS GENERATED BY HUCKEL   ROUTINE.
 HUCKEL GUESS REQUIRES    894860 WORDS.

 SYMMETRIES FOR INITIAL GUESS ORBITALS FOLLOW.   BOTH SET(S).
    73 ORBITALS ARE OCCUPIED (   21 CORE ORBITALS).
    22=?A      23=?T      24=?T      25=?T      26=?T      27=?T      28=?T  
    29=?E      30=?E      31=?T      32=?T      33=?T      34=?A      35=?A  
    36=?T      37=?T      38=?T      39=?T      40=?T      41=?T      42=?E  
    43=?E      44=?T      45=?T      46=?T      47=?T      48=?T      49=?T  
    50=?T      51=?T      52=?T      53=?T      54=?T      55=?T      56=?E  
    57=?E      58=?A      59=?T      60=?T      61=?T      62=?A      63=?T  
    64=?T      65=?T      66=?E      67=?E      68=?T      69=?T      70=?T  
    71=?T      72=?T      73=?T      74=?T      75=?T      76=?T      77=?E  
    78=?E      79=?A      80=?A      81=?A      82=?A      83=?A  
 ...... END OF INITIAL ORBITAL SELECTION ......
 CPU     0: STEP CPU TIME=     0.53 TOTAL CPU TIME=        0.6 (    0.0 MIN)
 TOTAL WALL CLOCK TIME=        0.6 SECONDS, CPU UTILIZATION IS  93.65%

                    ----------------------
                    AO INTEGRAL TECHNOLOGY
                    ----------------------
     S,P,L SHELL ROTATED AXIS INTEGRALS, REPROGRAMMED BY
        KAZUYA ISHIMURA (IMS) AND JOSE SIERRA (SYNSTAR).
     S,P,D,L SHELL ROTATED AXIS INTEGRALS PROGRAMMED BY
        KAZUYA ISHIMURA (INSTITUTE FOR MOLECULAR SCIENCE).
     S,P,D,F,G SHELL TO TOTAL QUARTET ANGULAR MOMENTUM SUM 5,
        ERIC PROGRAM BY GRAHAM FLETCHER (ELORET AND NASA ADVANCED
        SUPERCOMPUTING DIVISION, AMES RESEARCH CENTER).
     S,P,D,F,G,L SHELL GENERAL RYS QUADRATURE PROGRAMMED BY
        MICHEL DUPUIS (PACIFIC NORTHWEST NATIONAL LABORATORY).

          --------------------
          2 ELECTRON INTEGRALS
          --------------------

 DIRECT SCF METHOD SKIPS INTEGRAL STORAGE ON DISK.
 DIRECT TRANSFORMATION SKIPS AO INTEGRAL STORAGE ON DISK.
  ...... END OF TWO-ELECTRON INTEGRALS .....
 CPU     0: STEP CPU TIME=     0.01 TOTAL CPU TIME=        0.6 (    0.0 MIN)
 TOTAL WALL CLOCK TIME=        0.7 SECONDS, CPU UTILIZATION IS  92.31%

          --------------------------
                 RHF SCF CALCULATION
          --------------------------

     NUCLEAR ENERGY =      1646.5665782459
     MAXIT =   30     NPUNCH=    2
     EXTRAP=T  DAMP=F  SHIFT=F  RSTRCT=F  DIIS=T  DEM=F  SOSCF=F
     DENSITY MATRIX CONV=  2.00E-05
     MEMORY REQUIRED FOR RHF ITERS=    837644 WORDS.

 DIRECT SCF CALCULATION, SCHWRZ=T   FDIFF=T,  DIRTHR=  0.00E+00 NITDIR=10
 SCHWARZ INEQUALITY OVERHEAD:     51516 INTEGRALS, T=        0.01

                                                                                   NONZERO     BLOCKS
 ITER EX DEM     TOTAL ENERGY        E CHANGE  DENSITY CHANGE    DIIS ERROR      INTEGRALS    SKIPPED
   1  0  0     -914.0825555243  -914.0825555243   0.216185595   1.724174677       68859867    2206961
          * * *   INITIATING DIIS PROCEDURE   * * *
   2  1  0     -915.6380816829    -1.5555261586   0.043721611   0.043140707       68702787    2247995
   3  2  0     -915.7147055796    -0.0766238968   0.030532802   0.026071355       66881456    2354070
   4  3  0     -915.7267748067    -0.0120692271   0.011348582   0.004620052       64159958    2503919
   5  4  0     -915.7279065191    -0.0011317124   0.002557676   0.001501365       61984009    2582639
   6  5  0     -915.7279516861    -0.0000451670   0.000526971   0.000380584       57001604    2781699
   7  6  0     -915.7279544991    -0.0000028130   0.000127236   0.000042252       52766741    2920772
   8  7  0     -915.7279545943    -0.0000000952   0.000057689   0.000018244       46586620    3097870
   9  8  0     -915.7279546054    -0.0000000111   0.000009970   0.000002144       42059921    3224328
  10  9  0     -915.7279546060    -0.0000000006   0.000002270   0.000000325       34915504    3402592

          -----------------
          DENSITY CONVERGED
          -----------------
     TIME TO FORM FOCK OPERATORS=       6.4 SECONDS (       0.6 SEC/ITER)
     FOCK TIME ON FIRST ITERATION=       0.8, LAST ITERATION=       0.4
     TIME TO SOLVE SCF EQUATIONS=       0.5 SECONDS (       0.0 SEC/ITER)

 FINAL RHF ENERGY IS     -915.7279546060 AFTER  10 ITERATIONS

          ------------
          EIGENVECTORS
          ------------

                      1          2          3          4          5
                  -68.7612   -11.2238   -11.2238   -11.2238   -11.2238
                     A          T          T          T          A   
    1  SI 1  S    0.996860   0.000000  -0.000000  -0.000000   0.000010
    2  SI 1  S    0.012519   0.000000  -0.000000  -0.000000  -0.000380
    3  SI 1  X    0.000000  -0.000080  -0.000000  -0.000000   0.000000
    4  SI 1  Y    0.000000   0.000000   0.000080  -0.000000   0.000000
    5  SI 1  Z    0.000000   0.000000  -0.000000   0.000080   0.000000
    6  SI 1  S   -0.017026   0.000000  -0.000000  -0.000000  -0.000740
    7  SI 1  X    0.000000   0.001041  -0.000000  -0.000000   0.000000
    8  SI 1  Y    0.000000   0.000000  -0.001041  -0.000000   0.000000
    9  SI 1  Z    0.000000   0.000000  -0.000000  -0.001041   0.000000
   10  SI 1  S    0.001535   0.000000  -0.000000  -0.000000   0.010229
   11  SI 1  X    0.000000   0.003963  -0.000000  -0.000000   0.000000
   12  SI 1  Y    0.000000   0.000000  -0.003963  -0.000000   0.000000
   13  SI 1  Z    0.000000   0.000000  -0.000000  -0.003963   0.000000
   14  SI 1 XX    0.006075   0.000000  -0.000000  -0.000000  -0.000056
   15  SI 1 YY    0.006075   0.000000  -0.000000  -0.000000  -0.000056
   16  SI 1 ZZ    0.006075   0.000000  -0.000000  -0.000000  -0.000056
   17  SI 1 XY    0.000000   0.000000  -0.000000  -0.000494   0.000000
   18  SI 1 XZ    0.000000   0.000000  -0.000494  -0.000000   0.000000
   19  SI 1 YZ    0.000000   0.000494  -0.000000  -0.000000   0.000000
   20  C  2  S   -0.000004   0.497898   0.497898   0.497898   0.497921
   21  C  2  S    0.000091   0.014194   0.014194   0.014194   0.014314
   22  C  2  X    0.000006   0.000150   0.000076   0.000087   0.000116
   23  C  2  Y   -0.000006  -0.000087  -0.000150  -0.000076  -0.000116
   24  C  2  Z   -0.000006  -0.000076  -0.000087  -0.000150  -0.000116
   25  C  2  S    0.000251  -0.010311  -0.010311  -0.010311  -0.010683
   26  C  2  X    0.000011  -0.000696  -0.000400   0.000017  -0.000013
   27  C  2  Y   -0.000011  -0.000017   0.000696   0.000400   0.000013
   28  C  2  Z   -0.000011   0.000400  -0.000017   0.000696   0.000013
   29  C  2 XX   -0.000072  -0.000498  -0.000518  -0.000516  -0.000493
   30  C  2 YY   -0.000072  -0.000516  -0.000498  -0.000518  -0.000493
   31  C  2 ZZ   -0.000072  -0.000518  -0.000516  -0.000498  -0.000493
   32  C  2 XY    0.000064   0.000010   0.000019   0.000054   0.000053
   33  C  2 XZ    0.000064   0.000019   0.000054   0.000010   0.000053
   34  C  2 YZ   -0.000064  -0.000054  -0.000010  -0.000019  -0.000053
   35  C  3  S   -0.000004  -0.497898  -0.497898   0.497898   0.497921
   36  C  3  S    0.000091  -0.014194  -0.014194   0.014194   0.014314
   37  C  3  X   -0.000006   0.000150   0.000076  -0.000087  -0.000116
   38  C  3  Y    0.000006  -0.000087  -0.000150   0.000076   0.000116
   39  C  3  Z   -0.000006   0.000076   0.000087  -0.000150  -0.000116
   40  C  3  S    0.000251   0.010311   0.010311  -0.010311  -0.010683
   41  C  3  X   -0.000011  -0.000696  -0.000400  -0.000017   0.000013
   42  C  3  Y    0.000011  -0.000017   0.000696  -0.000400  -0.000013
   43  C  3  Z   -0.000011  -0.000400   0.000017   0.000696   0.000013
   44  C  3 XX   -0.000072   0.000498   0.000518  -0.000516  -0.000493
   45  C  3 YY   -0.000072   0.000516   0.000498  -0.000518  -0.000493
   46  C  3 ZZ   -0.000072   0.000518   0.000516  -0.000498  -0.000493
   47  C  3 XY    0.000064  -0.000010  -0.000019   0.000054   0.000053
   48  C  3 XZ   -0.000064   0.000019   0.000054  -0.000010  -0.000053
   49  C  3 YZ    0.000064  -0.000054  -0.000010   0.000019   0.000053
   50  C  4  S   -0.000004  -0.497898   0.497898  -0.497898   0.497921
   51  C  4  S    0.000091  -0.014194   0.014194  -0.014194   0.014314
   52  C  4  X   -0.000006   0.000150  -0.000076   0.000087  -0.000116
   53  C  4  Y   -0.000006   0.000087  -0.000150   0.000076  -0.000116
   54  C  4  Z    0.000006  -0.000076   0.000087  -0.000150   0.000116
   55  C  4  S    0.000251   0.010311  -0.010311   0.010311  -0.010683
   56  C  4  X   -0.000011  -0.000696   0.000400   0.000017   0.000013
   57  C  4  Y   -0.000011   0.000017   0.000696  -0.000400   0.000013
   58  C  4  Z    0.000011   0.000400   0.000017   0.000696  -0.000013
   59  C  4 XX   -0.000072   0.000498  -0.000518   0.000516  -0.000493
   60  C  4 YY   -0.000072   0.000516  -0.000498   0.000518  -0.000493
   61  C  4 ZZ   -0.000072   0.000518  -0.000516   0.000498  -0.000493
   62  C  4 XY   -0.000064   0.000010  -0.000019   0.000054  -0.000053
   63  C  4 XZ    0.000064  -0.000019   0.000054  -0.000010   0.000053
   64  C  4 YZ    0.000064  -0.000054   0.000010  -0.000019   0.000053
   65  C  5  S   -0.000004   0.497898  -0.497898  -0.497898   0.497921
   66  C  5  S    0.000091   0.014194  -0.014194  -0.014194   0.014314
   67  C  5  X    0.000006   0.000150  -0.000076  -0.000087   0.000116
   68  C  5  Y    0.000006   0.000087  -0.000150  -0.000076   0.000116
   69  C  5  Z    0.000006   0.000076  -0.000087  -0.000150   0.000116
   70  C  5  S    0.000251  -0.010311   0.010311   0.010311  -0.010683
   71  C  5  X    0.000011  -0.000696   0.000400  -0.000017  -0.000013
   72  C  5  Y    0.000011   0.000017   0.000696   0.000400  -0.000013
   73  C  5  Z    0.000011  -0.000400  -0.000017   0.000696  -0.000013
   74  C  5 XX   -0.000072  -0.000498   0.000518   0.000516  -0.000493
   75  C  5 YY   -0.000072  -0.000516   0.000498   0.000518  -0.000493
   76  C  5 ZZ   -0.000072  -0.000518   0.000516   0.000498  -0.000493
   77  C  5 XY   -0.000064  -0.000010   0.000019   0.000054  -0.000053
   78  C  5 XZ   -0.000064  -0.000019   0.000054   0.000010  -0.000053
   79  C  5 YZ   -0.000064  -0.000054   0.000010   0.000019  -0.000053
   80  C  6  S   -0.000011   0.007857   0.008047   0.007919   0.008038
   81  C  6  S   -0.000052   0.000184   0.000378   0.000316   0.000403
   82  C  6  X    0.000009   0.000093   0.000024   0.000046   0.000014
   83  C  6  Y   -0.000015  -0.000002   0.000081   0.000051   0.000067
   84  C  6  Z   -0.000020   0.000011   0.000130   0.000094   0.000126
   85  C  6  S    0.000102   0.002409   0.001764   0.002225   0.001665
   86  C  6  X   -0.000137   0.000218   0.000590   0.000727   0.000700
   87  C  6  Y    0.000046   0.000645  -0.000017   0.000268   0.000068
   88  C  6  Z    0.000047   0.000913   0.000364   0.000587   0.000295
   89  C  6 XX   -0.000024  -0.000134  -0.000043  -0.000089  -0.000067
   90  C  6 YY   -0.000015  -0.000136  -0.000043  -0.000092  -0.000037
   91  C  6 ZZ   -0.000008  -0.000217  -0.000153  -0.000160  -0.000148
   92  C  6 XY   -0.000003  -0.000041  -0.000081  -0.000040  -0.000056
   93  C  6 XZ   -0.000012  -0.000098  -0.000100  -0.000084  -0.000084
   94  C  6 YZ    0.000015  -0.000073  -0.000082  -0.000078  -0.000091
   95  C  7  S   -0.000011  -0.007857  -0.008047   0.007919   0.008038
   96  C  7  S   -0.000052  -0.000184  -0.000378   0.000316   0.000403
   97  C  7  X   -0.000009   0.000093   0.000024  -0.000046  -0.000014
   98  C  7  Y    0.000015  -0.000002   0.000081  -0.000051  -0.000067
   99  C  7  Z   -0.000020  -0.000011  -0.000130   0.000094   0.000126
  100  C  7  S    0.000102  -0.002409  -0.001764   0.002225   0.001665
  101  C  7  X    0.000137   0.000218   0.000590  -0.000727  -0.000700
  102  C  7  Y   -0.000046   0.000645  -0.000017  -0.000268  -0.000068
  103  C  7  Z    0.000047  -0.000913  -0.000364   0.000587   0.000295
  104  C  7 XX   -0.000024   0.000134   0.000043  -0.000089  -0.000067
  105  C  7 YY   -0.000015   0.000136   0.000043  -0.000092  -0.000037
  106  C  7 ZZ   -0.000008   0.000217   0.000153  -0.000160  -0.000148
  107  C  7 XY   -0.000003   0.000041   0.000081  -0.000040  -0.000056
  108  C  7 XZ    0.000012  -0.000098  -0.000100   0.000084   0.000084
[...]
                   Z  0.00399231 -0.01023146 -0.02134445  0.00135831
 18   H            X -0.01056381  0.00318340 -0.00892370 -0.00631054
                   Y  0.00979334 -0.00053329  0.00186383  0.00701479
                   Z  0.00867554 -0.00320452  0.00954027  0.00409954
 19   H            X -0.00026554 -0.00680057  0.00892370  0.00631054
                   Y  0.00656290  0.00259856 -0.00186383 -0.00701479
                   Z  0.00209738 -0.00723962  0.00954027  0.00409954
 20   H            X -0.00282237  0.00074181  0.00892370  0.00631054
                   Y  0.00339102 -0.00362497  0.00186383  0.00701479
                   Z  0.00478008 -0.00197592 -0.00954027 -0.00409954
 21   H            X -0.00186646 -0.01230930  0.00121983  0.01031188
                   Y -0.00017284 -0.01302793 -0.00100324  0.01088342
                   Z  0.00496545 -0.00768517 -0.00514307  0.00512152
 22   H            X -0.00658737 -0.01082036 -0.00121983 -0.01031188
                   Y  0.00560681  0.01131410 -0.00100324  0.01088342
                   Z -0.00061630 -0.00592472  0.00514307 -0.00512152
 23   H            X -0.00409820 -0.01014568 -0.00121983 -0.01031188
                   Y -0.00460795 -0.00872818  0.00100324 -0.01088342
                   Z  0.00258795  0.00036229 -0.00514307  0.00512152
 24   H            X -0.00881910 -0.00865674  0.00121983  0.01031188
                   Y  0.01004192  0.00701434  0.00100324 -0.01088342
                   Z  0.00816970 -0.00139816  0.00514307 -0.00512152
 25   H            X  0.00067218 -0.00978945  0.00700690  0.00189327
                   Y  0.00964750 -0.00644805  0.00832044 -0.00621234
                   Z  0.00834475 -0.00865951  0.00992694 -0.00457288
 26   H            X -0.00252564 -0.00668922 -0.00700690 -0.00189327
                   Y  0.00694286 -0.00382595 -0.00832044  0.00621234
                   Z -0.00523159  0.00564136  0.00992694 -0.00457288
 27   H            X -0.00816433 -0.00491082  0.00700690  0.00189327
                   Y  0.01186113 -0.00210470 -0.00832044  0.00621234
                   Z  0.01274390 -0.00002799 -0.00992694  0.00457288
 28   H            X -0.00496651 -0.00801104 -0.00700690 -0.00189327
                   Y  0.00915650  0.00051740  0.00832044 -0.00621234
                   Z -0.00963074 -0.00299016 -0.00992694  0.00457288
 29   H            X  0.00747589 -0.00924216 -0.00892370 -0.00631054
                   Y  0.00662146 -0.00675682 -0.00186383 -0.00701479
                   Z  0.00599284 -0.00846822 -0.00954027 -0.00409954
 30   H            X -0.03570754  0.03488169 -0.09721570 -0.00366562
                   Y  0.07951125 -0.07580926  0.21175879  0.00676751
                   Z -0.07354773  0.07072795 -0.19598670 -0.00705581
 31   H            X  0.06707345 -0.06476253  0.09721570  0.00366562
                   Y -0.14425394  0.14112684 -0.21175879 -0.00676751
                   Z -0.13374332  0.13023679 -0.19598670 -0.00705581
 32   H            X -0.07584992  0.04754232  0.09721570  0.00366562
                   Y -0.16396789  0.10244630  0.21175879  0.00676751
                   Z -0.15153646  0.09532506  0.19598670  0.00705581
 33   H            X  0.10948936  0.18499214 -0.09188284 -0.17325737
                   Y -0.05475045 -0.09130266  0.04543333  0.08602408
                   Z -0.11782230 -0.19975979  0.10001856  0.18677225
 34   H            X  0.14080096  0.17511668  0.09188284  0.17325737
                   Y  0.07019489  0.08643159  0.04543333  0.08602408
                   Z -0.15251406 -0.18881824 -0.10001856 -0.18677225
 35   H            X  0.06480914  0.22830877  0.09188284  0.17325737
                   Y -0.03175264 -0.11359861 -0.04543333 -0.08602408
                   Z  0.06943658  0.24666882  0.10001856  0.18677225
 36   H            X  0.09612074  0.21843330 -0.09188284 -0.17325737
                   Y  0.04719708  0.10872753 -0.04543333 -0.08602408
                   Z  0.10412834  0.23572728 -0.10001856 -0.18677225
 37   H            X  0.22922383 -0.02414365  0.11174023 -0.18000474
                   Y -0.21204015  0.02227610 -0.10410386  0.16620156
                   Z  0.10553121 -0.01020138  0.05178237 -0.08235846
 38   H            X  0.20934871 -0.00487509 -0.11174023  0.18000474
                   Y -0.19410154  0.00488496  0.10410386 -0.16620156
                   Z -0.09668299  0.00162320  0.05178237 -0.08235846
 39   H            X -0.18123048  0.11831091  0.11174023 -0.18000474
                   Y -0.16772225  0.10923179  0.10410386 -0.16620156
                   Z  0.08271989 -0.05495924 -0.05178237  0.08235846
 40   H            X -0.16135536  0.09904236 -0.11174023  0.18000474
                   Y -0.14978365  0.09184065 -0.10410386  0.16620156
                   Z -0.07387167  0.04638106 -0.05178237  0.08235846
 41   H            X  0.02693107 -0.05210190 -0.09721570 -0.00366562
                   Y  0.05979730 -0.11448980 -0.21175879 -0.00676751
                   Z -0.05575459  0.10563968  0.19598670  0.00705581
 42   H            X -0.00072411 -0.05891912  0.18607751 -0.04816037
                   Y -0.00191702 -0.03728679  0.11820737 -0.03125150
                   Z  0.00097253  0.02299353 -0.07069761  0.01849131
 43   H            X -0.18404536  0.11880736 -0.18607751  0.04816037
                   Y -0.11803654  0.07528888 -0.11820737  0.03125150
                   Z -0.07076505  0.04466900 -0.07069761  0.01849131
 44   H            X  0.18475369 -0.11741755 -0.18607751  0.04816037
                   Y -0.11811099  0.07514280  0.11820737 -0.03125150
                   Z -0.07034789  0.04548750  0.07069761 -0.01849131
 45   H            X  0.05541028  0.04799215 -0.05136275 -0.05198027
                   Y  0.14342477  0.12707535 -0.13474686 -0.13706766
                   Z -0.09190583 -0.07968226  0.08616828  0.08674483
 46   H            X  0.05467618  0.04822368  0.05136275  0.05198027
                   Y -0.14467126 -0.12668222 -0.13474686 -0.13706766
                   Z -0.09203684 -0.07964094 -0.08616828 -0.08674483
 47   H            X  0.01455038  0.08760505  0.05136275  0.05198027
                   Y  0.03716342  0.23009372  0.13474686  0.13706766
                   Z  0.02314105  0.14634841  0.08616828  0.08674483
 48   H            X  0.01381628  0.08783657 -0.05136275 -0.05198027
                   Y -0.03840990 -0.22970059  0.13474686  0.13706766
                   Z  0.02327206  0.14630709 -0.08616828 -0.08674483
 49   H            X  0.13548365  0.03491515  0.03203909 -0.11799634
                   Y -0.08096496 -0.02075330 -0.01933486  0.07047158
                   Z -0.21304931 -0.05259513 -0.05133065  0.18522804
 50   H            X  0.13540859  0.03498791 -0.03203909  0.11799634
                   Y -0.08138553 -0.02034557  0.01933486 -0.07047158
                   Z  0.21233519  0.05328745 -0.05133065  0.18522804
 51   H            X -0.06727650  0.09891340  0.03203909 -0.11799634
                   Y -0.04043640  0.05876737  0.01933486 -0.07047158
                   Z -0.10764964  0.15420848  0.05133065 -0.18522804
 52   H            X -0.06720144  0.09884064 -0.03203909  0.11799634
                   Y -0.04085697  0.05917510 -0.01933486  0.07047158
                   Z  0.10693552 -0.15351615  0.05133065 -0.18522804
 53   H            X  0.00143244  0.06030893  0.18607751 -0.04816037
                   Y -0.00199147 -0.03743287 -0.11820737  0.03125150
                   Z  0.00055537  0.02217503  0.07069761 -0.01849131

 TRANS. SAYVETZ    X -0.00000003 -0.00000005  0.00000000  0.00000000
                   Y  0.00000004 -0.00000001  0.00000000  0.00000000
                   Z  0.00000003 -0.00000002  0.00000000  0.00000000
               TOTAL  0.00000006  0.00000006  0.00000000  0.00000000

   ROT. SAYVETZ    X  0.00000002  0.00000004  0.00000000  0.00000000
                   Y -0.00000004  0.00000001  0.00000000  0.00000000
                   Z -0.00000002  0.00000002 -0.00000000  0.00000000
               TOTAL  0.00000005  0.00000005  0.00000000  0.00000000

 REFERENCE ON SAYVETZ CONDITIONS - A. SAYVETZ, J.CHEM.PHYS., 7, 383-389(1939).

 NOTE - THE MODES J,K ARE ORTHONORMALIZED ACCORDING TO
 SUM ON I   M(I) * (X(I,J)*X(I,K) + Y(I,J)*Y(I,K) + Z(I,J)*Z(I,K)) = DELTA(J,K)

  MODE FREQ(CM**-1)  SYMMETRY  RED. MASS  IR INTENS.
     1       0.021    T        4.834886    0.000000
     2       0.021    T        4.834886    0.000000
     3       0.021    T        4.834886    0.000000
     4       1.306    T        3.432945    0.000000
     5       1.306    T        3.432945    0.000000
     6       1.306    T        3.432945    0.000000
     7     141.110    T        2.702363    0.000907
     8     141.110    T        2.702363    0.000907
     9     141.110    T        2.702363    0.000907
    10     160.227    E        3.324038    0.000000
    11     160.227    E        3.324038    0.000000
    12     179.733    A        2.834439    0.000000
    13     212.713    T        3.067611    0.006662
    14     212.713    T        3.067611    0.006662
    15     212.713    T        3.067611    0.006662
    16     223.806    T        2.254952    0.002301
    17     223.806    T        2.254952    0.002301
    18     223.806    T        2.254952    0.002301
    19     248.122    T        1.374714    0.001573
    20     248.122    T        1.374714    0.001573
    21     248.122    T        1.374714    0.001573
    22     271.890    T        1.675584    0.002887
    23     271.890    T        1.675584    0.002887
    24     271.890    T        1.675584    0.002887
    25     272.648    E        1.827233    0.000000
    26     272.648    E        1.827233    0.000000
    27     283.630    A        1.616693    0.000000
    28     308.353    A        1.624605    0.000000
    29     323.922    E        1.327035    0.000000
    30     323.922    E        1.327035    0.000000
    31     325.032    T        1.228031    0.008039
    32     325.032    T        1.228031    0.008039
    33     325.032    T        1.228031    0.008039
    34     361.480    T        1.077725    0.004534
    35     361.480    T        1.077725    0.004534
    36     361.480    T        1.077725    0.004534
    37     406.802    T        2.325431    0.023299
    38     406.802    T        2.325431    0.023299
    39     406.802    T        2.325431    0.023299
    40     449.776    T        2.174913    0.008536
    41     449.776    T        2.174913    0.008536
    42     449.776    T        2.174913    0.008536
    43     461.737    E        2.251597    0.000000
    44     461.737    E        2.251597    0.000000
    45     519.941    T        3.126252    0.511985
    46     519.941    T        3.126252    0.511985
    47     519.941    T        3.126252    0.511985
    48     590.247    A        2.288745    0.000000
    49     640.033    T        3.747656    0.811006
    50     640.033    T        3.747656    0.811006
    51     640.033    T        3.747656    0.811006
    52     880.108    T        2.708549    0.590640
    53     880.108    T        2.708549    0.590640
    54     880.108    T        2.708549    0.590640
    55     880.462    A        2.750496    0.000000
    56    1009.345    T        2.097224    0.000912
    57    1009.345    T        2.097224    0.000912
    58    1009.345    T        2.097224    0.000912
    59    1014.542    T        1.964177    0.203428
    60    1014.542    T        1.964177    0.203428
    61    1014.542    T        1.964177    0.203428
    62    1017.087    E        1.945805    0.000000
    63    1017.087    E        1.945805    0.000000
    64    1047.340    T        1.182918    0.000016
    65    1047.340    T        1.182918    0.000016
    66    1047.340    T        1.182918    0.000016
    67    1054.991    A        1.170840    0.000000
    68    1122.707    T        1.316988    0.000649
    69    1122.707    T        1.316988    0.000649
    70    1122.707    T        1.316988    0.000649
    71    1137.527    T        1.318600    0.161495
    72    1137.527    T        1.318600    0.161495
    73    1137.527    T        1.318600    0.161495
    74    1137.658    E        1.320892    0.000000
    75    1137.658    E        1.320892    0.000000
    76    1305.371    T        2.113154    0.000369
    77    1305.371    T        2.113154    0.000369
    78    1305.371    T        2.113154    0.000369
    79    1316.118    T        2.282653    0.012468
    80    1316.118    T        2.282653    0.012468
    81    1316.118    T        2.282653    0.012468
    82    1318.977    E        2.309226    0.000000
    83    1318.977    E        2.309226    0.000000
    84    1334.193    T        2.077310    0.033626
    85    1334.193    T        2.077310    0.033626
    86    1334.193    T        2.077310    0.033626
    87    1337.746    A        1.976635    0.000000
    88    1551.339    T        1.214246    0.000044
    89    1551.339    T        1.214246    0.000044
    90    1551.339    T        1.214246    0.000044
    91    1559.182    T        1.213881    0.021199
    92    1559.182    T        1.213881    0.021199
    93    1559.182    T        1.213881    0.021199
    94    1561.196    E        1.210960    0.000000
    95    1561.196    E        1.210960    0.000000
    96    1587.546    T        1.202671    0.232340
    97    1587.546    T        1.202671    0.232340
    98    1587.546    T        1.202671    0.232340
    99    1601.232    A        1.202319    0.000000
   100    1635.534    T        1.051428    0.002534
   101    1635.534    T        1.051428    0.002534
   102    1635.534    T        1.051428    0.002534
   103    1641.040    A        1.054443    0.000000
   104    1643.605    T        1.048366    0.030661
   105    1643.605    T        1.048366    0.030661
   106    1643.605    T        1.048366    0.030661
   107    1647.487    E        1.049677    0.000000
   108    1647.487    E        1.049677    0.000000
   109    1648.644    T        1.049520    0.034608
   110    1648.644    T        1.049520    0.034608
   111    1648.644    T        1.049520    0.034608
   112    1659.331    T        1.049776    0.037003
   113    1659.331    T        1.049776    0.037003
   114    1659.331    T        1.049776    0.037003
   115    1668.925    E        1.048677    0.000000
   116    1668.925    E        1.048677    0.000000
   117    1669.476    T        1.050042    0.209304
   118    1669.476    T        1.050042    0.209304
   119    1669.476    T        1.050042    0.209304
   120    1676.228    A        1.048614    0.000000
   121    1680.874    T        1.051115    0.261124
   122    1680.874    T        1.051115    0.261124
   123    1680.874    T        1.051115    0.261124
   124    3190.978    T        1.056595    0.067162
   125    3190.978    T        1.056595    0.067162
   126    3190.978    T        1.056595    0.067162
   127    3191.727    T        1.057901    0.539975
   128    3191.727    T        1.057901    0.539975
   129    3191.727    T        1.057901    0.539975
   130    3191.819    E        1.058229    0.000000
   131    3191.819    E        1.058229    0.000000
   132    3202.816    T        1.055024    4.609065
   133    3202.816    T        1.055024    4.609065
   134    3202.816    T        1.055024    4.609065
   135    3208.510    A        1.058545    0.000000
   136    3270.516    T        1.080748    0.267785
   137    3270.516    T        1.080748    0.267785
   138    3270.516    T        1.080748    0.267785
   139    3273.238    T        1.082389    3.798545
   140    3273.238    T        1.082389    3.798545
   141    3273.238    T        1.082389    3.798545
   142    3277.292    E        1.078687    0.000000
   143    3277.292    E        1.078687    0.000000
   144    3285.994    T        1.079247    0.002375
   145    3285.994    T        1.079247    0.002375
   146    3285.994    T        1.079247    0.002375
   147    3296.824    A        1.074962    0.000000
   148    3312.329    T        1.099718    1.080218
   149    3312.329    T        1.099718    1.080218
   150    3312.329    T        1.099718    1.080218
   151    3313.130    T        1.101638    0.006237
   152    3313.130    T        1.101638    0.006237
   153    3313.130    T        1.101638    0.006237
   154    3317.154    A        1.102063    0.000000
   155    3325.747    T        1.099659    1.793647
   156    3325.747    T        1.099659    1.793647
   157    3325.747    T        1.099659    1.793647
   158    3328.618    E        1.099456    0.000000
   159    3328.618    E        1.099456    0.000000

     -------------------------------
     THERMOCHEMISTRY AT T=  298.15 K
     -------------------------------

 USING IDEAL GAS, RIGID ROTOR, HARMONIC NORMAL MODE APPROXIMATIONS.
 P=  1.01325E+05 PASCAL.
 ALL FREQUENCIES ARE SCALED BY   1.00000
 THE MOMENTS OF INERTIA ARE (IN AMU*BOHR**2)
   4487.51175  4487.51175  4487.51175
 THE ROTATIONAL SYMMETRY NUMBER IS 12.0
 THE ROTATIONAL CONSTANTS ARE (IN GHZ)
      0.40180     0.40180     0.40180
      7 -    159 VIBRATIONAL MODES ARE USED IN THERMOCHEMISTRY.
 THE HARMONIC ZERO POINT ENERGY IS (SCALED BY   1.000)
        0.528583 HARTREE/MOLECULE   116010.609800 CM**-1/MOLECULE 
      331.691311 KCAL/MOL             1387.796444 KJ/MOL

               Q               LN Q
 ELEC.     1.00000E+00       0.000000
 TRANS.    1.61240E+08      18.898402
 ROT.      2.83575E+05      12.555233
 VIB.      5.02748E+05      13.127844
 TOT.      2.29874E+19      44.581479

              E         H         G         CV        CP        S
           KJ/MOL    KJ/MOL    KJ/MOL   J/MOL-K   J/MOL-K   J/MOL-K
 ELEC.      0.000     0.000     0.000     0.000     0.000     0.000
 TRANS.     3.718     6.197   -46.848    12.472    20.786   177.915
 ROT.       3.718     3.718   -31.124    12.472    12.472   116.861
 VIB.    1437.877  1437.877  1355.253   346.100   346.100   277.120
 TOTAL   1445.314  1447.793  1277.282   371.043   379.358   571.896
 VIB. THERMAL CORRECTION E(T)-E(0) = H(T)-H(0) = 50080.320 J/MOL

              E         H         G         CV        CP        S
         KCAL/MOL  KCAL/MOL  KCAL/MOL CAL/MOL-K CAL/MOL-K CAL/MOL-K
 ELEC.      0.000     0.000     0.000     0.000     0.000     0.000
 TRANS.     0.889     1.481   -11.197     2.981     4.968    42.523
 ROT.       0.889     0.889    -7.439     2.981     2.981    27.930
 VIB.     343.661   343.661   323.913    82.720    82.720    66.233
 TOTAL    345.438   346.031   305.278    88.681    90.669   136.687
 VIB. THERMAL CORRECTION E(T)-E(0) = H(T)-H(0) = 11969.484 CAL/MOL
 ......END OF NORMAL COORDINATE ANALYSIS......
 CPU     0: STEP CPU TIME=     0.08 TOTAL CPU TIME=      227.7 (    3.8 MIN)
 TOTAL WALL CLOCK TIME=      230.6 SECONDS, CPU UTILIZATION IS  98.72%
 AN INPUT FILE FOR -MOLPLT- HAS BEEN PUNCHED.
             21874780  WORDS OF DYNAMIC MEMORY USED
 EXECUTION OF GAMESS TERMINATED NORMALLY Sun Jul 30 15:59:15 2017
 DDI: 263640 bytes (0.3 MB / 0 MWords) used by master data server.

 ----------------------------------------
 CPU timing information for all processes
 ========================================
 0: 226.499 + 1.187 = 227.687
 1: 226.323 + 1.154 = 227.478
 2: 225.700 + 0.684 = 226.385
 3: 225.745 + 0.922 = 226.668
 4: 225.618 + 0.987 = 226.606
 5: 225.472 + 0.574 = 226.47
 ----------------------------------------
 ddikick.x: exited gracefully.
unset echo
----- accounting info -----
Files used on the master node bolt.iprt.iastate.edu were:
-rw-rw-r-- 1 sarom sarom     4099 Jul 30 15:55 /home/sarom/dir.git.branch.saromleang-travis-ci/scratch/tbs.F05
-rw-rw-r-- 1 sarom sarom 14593120 Jul 30 15:59 /home/sarom/dir.git.branch.saromleang-travis-ci/scratch/tbs.F10
-rw-rw-r-- 1 sarom sarom 69892584 Jul 30 15:56 /home/sarom/dir.git.branch.saromleang-travis-ci/scratch/tbs.F18
rm: No match.
ls: No match.
ls: No match.
ls: No match.
Sun Jul 30 15:59:18 CDT 2017
0.257u 0.147s 3:54.11 0.1%	0+0k 0+24io 0pf+0w
