----- GAMESS execution script 'rungms' -----
This job is running on host nid03049
under operating system Linux at Thu Sep 7 12:08:01 PDT 2017
Available scratch disk space (Kbyte units) at beginning of the job is
Filesystem        1K-blocks        Used   Available Use% Mounted on
/global/u2     109521666048 60189234816 49332431232  55% /global/u2
GAMESS temporary binary files will be written to /global/homes/f/fzahari/scr
GAMESS supplementary output files will be written to /global/homes/f/fzahari/scr
Copying input file wat16_FMO_o.inp to your run's scratch directory...
cp wat16_FMO_o.inp /global/homes/f/fzahari/scr/wat16_FMO_o.F05
unset echo
/global/homes/f/fzahari/Work/Programs/gamess_edison/ddikick.x /global/homes/f/fzahari/Work/Programs/gamess_edison/gamess.24.x wat16_FMO_o -ddi 1 1 nid03049 -scr /global/homes/f/fzahari/scr

 Distributed Data Interface kickoff program.
 Initiating 1 compute processes on 1 nodes to run the following command:
 /global/homes/f/fzahari/Work/Programs/gamess_edison/gamess.24.x wat16_FMO_o 

          ******************************************************
          *         GAMESS VERSION = 20 APR 2017 (R1)          *
          *             FROM IOWA STATE UNIVERSITY             *
          * M.W.SCHMIDT, K.K.BALDRIDGE, J.A.BOATZ, S.T.ELBERT, *
          *   M.S.GORDON, J.H.JENSEN, S.KOSEKI, N.MATSUNAGA,   *
          *          K.A.NGUYEN, S.J.SU, T.L.WINDUS,           *
          *       TOGETHER WITH M.DUPUIS, J.A.MONTGOMERY       *
          *         J.COMPUT.CHEM.  14, 1347-1363(1993)        *
          **************** 64 BIT INTEL VERSION ****************

  SINCE 1993, STUDENTS AND POSTDOCS WORKING AT IOWA STATE UNIVERSITY
  AND ALSO IN THEIR VARIOUS JOBS AFTER LEAVING ISU HAVE MADE IMPORTANT
  CONTRIBUTIONS TO THE CODE:
     IVANA ADAMOVIC, CHRISTINE AIKENS, YURI ALEXEEV, POOJA ARORA,
     ANDREY ASADCHEV, ROB BELL, PRADIPTA BANDYOPADHYAY, JONATHAN BENTZ,
     BRETT BODE, KURT BRORSEN, CALEB CARLIN, GALINA CHABAN, WEI CHEN,
     CHEOL HO CHOI, PAUL DAY, ALBERT DEFUSCO, NUWAN DESILVA, TIM DUDLEY,
     DMITRI FEDOROV, GRAHAM FLETCHER, MARK FREITAG, KURT GLAESEMANN,
     DAN KEMP, GRANT MERRILL, NORIYUKI MINEZAWA, JONATHAN MULLIN,
     TAKESHI NAGATA, SEAN NEDD, HEATHER NETZLOFF, BOSILJKA NJEGIC, RYAN OLSON,
     MIKE PAK, SPENCER PRUITT, LUKE ROSKOP, JIM SHOEMAKER, LYUDMILA SLIPCHENKO,
     TONY SMITH, SAROM SOK LEANG, JIE SONG, TETSUYA TAKETSUGU, SIMON WEBB,
     PENG XU, SOOHAENG YOO, FEDERICO ZAHARIEV

  ADDITIONAL CODE HAS BEEN PROVIDED BY COLLABORATORS IN OTHER GROUPS:
     IOWA STATE UNIVERSITY:
          JOE IVANIC, AARON WEST, LAIMUTIS BYTAUTAS, KLAUS RUEDENBERG
     UNIVERSITY OF TOKYO: KIMIHIKO HIRAO, TAKAHITO NAKAJIMA,
          TAKAO TSUNEDA, MUNEAKI KAMIYA, SUSUMU YANAGISAWA,
          KIYOSHI YAGI, MAHITO CHIBA, SEIKEN TOKURA, NAOAKI KAWAKAMI
     UNIVERSITY OF AARHUS: FRANK JENSEN
     UNIVERSITY OF IOWA: VISVALDAS KAIRYS, HUI LI
     NATIONAL INST. OF STANDARDS AND TECHNOLOGY: WALT STEVENS, DAVID GARMER
     UNIVERSITY OF PISA: BENEDETTA MENNUCCI, JACOPO TOMASI
     UNIVERSITY OF MEMPHIS: HENRY KURTZ, PRAKASHAN KORAMBATH
     UNIVERSITY OF ALBERTA: TOBY ZENG, MARIUSZ KLOBUKOWSKI
     UNIVERSITY OF NEW ENGLAND: MARK SPACKMAN
     MIE UNIVERSITY: HIROAKI UMEDA
     NAT. INST. OF ADVANCED INDUSTRIAL SCIENCE AND TECHNOLOGY: KAZUO KITAURA
     MICHIGAN STATE UNIVERSITY:
          KAROL KOWALSKI, MARTA WLOCH, JEFFREY GOUR, JESSE LUTZ,
          WEI LI, PIOTR PIECUCH
     UNIVERSITY OF SILESIA: MONIKA MUSIAL, STANISLAW KUCHARSKI
     FACULTES UNIVERSITAIRES NOTRE-DAME DE LA PAIX:
          OLIVIER QUINET, BENOIT CHAMPAGNE
     UNIVERSITY OF CALIFORNIA - SANTA BARBARA: BERNARD KIRTMAN
     INSTITUTE FOR MOLECULAR SCIENCE:
          KAZUYA ISHIMURA, MICHIO KATOUDA, AND SHIGERU NAGASE
     UNIVERSITY OF NOTRE DAME: ANNA POMOGAEVA, DAN CHIPMAN
     KYUSHU UNIVERSITY:
          HARUYUKI NAKANO,
          FENG LONG GU, JACEK KORCHOWIEC, MARCIN MAKOWSKI, AND YURIKO AOKI,
          HIROTOSHI MORI AND EISAKU MIYOSHI
     PENNSYLVANIA STATE UNIVERSITY:
          TZVETELIN IORDANOV, CHET SWALINA, JONATHAN SKONE,
          SHARON HAMMES-SCHIFFER
     WASEDA UNIVERSITY:
          MASATO KOBAYASHI, TOMOKO AKAMA, TSUGUKI TOUMA,
          TAKESHI YOSHIKAWA, YASUHIRO IKABATA, JUNJI SEINO,
          YUYA NAKAJIMA, HIROMI NAKAI
     NANJING UNIVERSITY: SHUHUA LI
     UNIVERSITY OF NEBRASKA:
          PEIFENG SU, DEJUN SI, NANDUN THELLAMUREGE, YALI WANG, HUI LI
     UNIVERSITY OF ZURICH: ROBERTO PEVERATI, KIM BALDRIDGE
     N. COPERNICUS UNIVERSITY AND JACKSON STATE UNIVERSITY:
          MARIA BARYSZ
     UNIVERSITY OF COPENHAGEN: Jimmy Kromann, CASPER STEINMANN
     TOKYO INSTITUTE OF TECHNOLOGY: HIROYA NAKATA
     NAGOYA UNIVERSITY: YOSHIO NISHIMOTO, STEPHAN IRLE
     MOSCOW STATE UNIVERSITY: VLADIMIR MIRONOV

 EXECUTION OF GAMESS BEGUN Thu Sep  7 12:08:02 2017

            ECHO OF THE FIRST FEW INPUT CARDS -
 INPUT CARD>! $contrl dfttyp=b3lyp ispher=1 nprint=-5 $end                                  
 INPUT CARD> $contrl ispher=1 nprint=-5 $end                                                
 INPUT CARD> $system mwords=100 $end                                                        
 INPUT CARD> $ELMOM IEMOM=0 $END                                                            
 INPUT CARD> $basis  gbasis=n31 ngauss=6 ndfunc=1 $end                                      
 INPUT CARD> $fmo                                                                           
 INPUT CARD>        iefmo=1                                                                 
 INPUT CARD>        nfrag=16 nbody=2 nacut=3                                                
 INPUT CARD>        resdim=0.3 rcorsd=0.3                                                   
 INPUT CARD>!        modefm(1)=8,24,1,1,1                                                   
 INPUT CARD> $end                                                                           
 INPUT CARD> $fmoprp nprint=9 $end                                                          
 INPUT CARD> $data                                                                          
 INPUT CARD>Water16 modeled by HyperChem and optimized by amber94 force feld                
 INPUT CARD>C1                                                                              
 INPUT CARD>h 1                                                                             
 INPUT CARD>o 8                                                                             
 INPUT CARD> $end                                                                           
 INPUT CARD> $fmoxyz                                                                        
 INPUT CARD>O 8       -0.564282   -0.573389   -2.527290                                     
 INPUT CARD>H 1       -0.080858   -1.335857   -2.192111                                     
 INPUT CARD>H 1        0.119062   -0.063496   -2.973049                                     
 INPUT CARD>O 8       -3.559032   -1.843467   -2.145618                                     
 INPUT CARD>H 1       -3.976867   -2.377445   -2.823766                                     
 INPUT CARD>H 1       -2.661798   -1.718761   -2.474039                                     
 INPUT CARD>O 8       -0.780634    0.549622    1.559678                                     
 INPUT CARD>H 1       -1.538516   -0.014361    1.370546                                     
 INPUT CARD>H 1       -0.951282    1.322831    1.010301                                     
 INPUT CARD>O 8       -2.352054   -2.187566    0.721791                                     
 INPUT CARD>H 1       -3.196693   -2.026671    0.291598                                     
 INPUT CARD>H 1       -1.889702   -2.743454    0.085772                                     
 INPUT CARD>O 8       -2.787945    1.065148   -0.801006                                     
 INPUT CARD>H 1       -3.363079    0.372300   -1.138435                                     
 INPUT CARD>H 1       -1.995432    0.973197   -1.341287                                     
 INPUT CARD>O 8       -0.743852    3.066470    3.696188                                     
 INPUT CARD>H 1       -1.142793    2.220454    3.479019                                     
 INPUT CARD>H 1       -1.267910    3.692487    3.186715                                     
 INPUT CARD>O 8       -2.298610    3.527736    1.007140                                     
 INPUT CARD>H 1       -3.012998    2.988911    0.653722                                     
 INPUT CARD>H 1       -1.686213    3.587875    0.268187                                     
 INPUT CARD>O 8        1.900072   -0.303970   -0.164006                                     
 INPUT CARD>H 1        1.034150    0.118481   -0.148631                                     
 INPUT CARD>H 1        1.855278   -0.912350    0.581306                                     
 INPUT CARD>O 8        2.287796   -2.178609   -2.793880                                     
 INPUT CARD>H 1        2.604370   -1.650842   -2.054605                                     
 INPUT CARD>H 1        2.444322   -1.605606   -3.550011                                     
 INPUT CARD>O 8        0.017154   -3.564946   -1.130639                                     
 INPUT CARD>H 1        0.548169   -3.517187   -0.329719                                     
 INPUT CARD>H 1        0.670232   -3.709525   -1.823086                                     
 INPUT CARD>O 8        0.672636   -2.500629    1.909540                                     
  100000000 WORDS OF MEMORY AVAILABLE

     BASIS OPTIONS
     -------------
     GBASIS=N31          IGAUSS=       6      POLAR=POPN31  
     NDFUNC=       1     NFFUNC=       0     DIFFSP=       F
     NPFUNC=       0      DIFFS=       F     BASNAM=        


     RUN TITLE
     ---------
 Water16 modeled by HyperChem and optimized by amber94 force feld                

 THE POINT GROUP OF THE MOLECULE IS C1      
 THE ORDER OF THE PRINCIPAL AXIS IS     0

 ATOM   ATOMIC CHARGE
 H           1.0
 O           8.0

     ATOMIC BASIS SET LIBRARY
     ----------------
 THE CONTRACTED PRIMITIVE FUNCTIONS HAVE BEEN UNNORMALIZED
 THE CONTRACTED BASIS FUNCTIONS ARE NOW NORMALIZED TO UNITY

  SHELL TYPE  PRIMITIVE        EXPONENT          CONTRACTION COEFFICIENT(S)

 H         

      1   S       1            18.7311370    0.033494604338
      1   S       2             2.8253944    0.234726953484
      1   S       3             0.6401217    0.813757326146

      2   S       4             0.1612778    1.000000000000

 O         

      3   S       5          5484.6716600    0.001831074430
      3   S       6           825.2349460    0.013950172200
      3   S       7           188.0469580    0.068445078098
      3   S       8            52.9645000    0.232714335992
      3   S       9            16.8975704    0.470192897984
      3   S      10             5.7996353    0.358520852987

      4   L      11            15.5396162   -0.110777549525    0.070874268231
      4   L      12             3.5999336   -0.148026262701    0.339752839147
      4   L      13             1.0137618    1.130767015354    0.727158577316

      5   L      14             0.2700058    1.000000000000    1.000000000000

      6   D      15             0.8000000    1.000000000000

 TOTAL NUMBER OF BASIS SET SHELLS             =    6
 NUMBER OF CARTESIAN GAUSSIAN BASIS FUNCTIONS =   17

     $CONTRL OPTIONS
     ---------------
 SCFTYP=RHF          RUNTYP=ENERGY       EXETYP=RUN     
 MPLEVL=       0     CITYP =NONE         CCTYP =NONE         VBTYP =NONE    
 DFTTYP=NONE         TDDFT =NONE    
 MULT  =       1     ICHARG=       0     NZVAR =       0     COORD =UNIQUE  
 PP    =NONE         RELWFN=NONE         LOCAL =NONE         NUMGRD=       F
 ISPHER=       1     NOSYM =       0     MAXIT =      30     UNITS =ANGS    
 PLTORB=       F     MOLPLT=       F     AIMPAC=       F     FRIEND=        
 NPRINT=      -5     IREST =       0     GEOM  =INPUT   
 NORMF =       0     NORMP =       0     ITOL  =      24     ICUT  =      12
 INTTYP=BEST         GRDTYP=BEST         QMTTOL= 1.0E-06

     $SYSTEM OPTIONS
     ---------------
  REPLICATED MEMORY=   100000000 WORDS (ON EVERY NODE).
 DISTRIBUTED MEMDDI=           0 MILLION WORDS IN AGGREGATE,
 MEMDDI DISTRIBUTED OVER   1 PROCESSORS IS           0 WORDS/PROCESSOR.
 TOTAL MEMORY REQUESTED ON EACH PROCESSOR=   100000000 WORDS.
 TIMLIM=      525600.00 MINUTES, OR     365.0 DAYS.
 PARALL= F  BALTYP=  DLB     KDIAG=    0  COREFL= F
 MXSEQ2=     300 MXSEQ3=     150  mem10=         0

          ----------------
          PROPERTIES INPUT
          ----------------

     MOMENTS            FIELD           POTENTIAL          DENSITY
 IEMOM =       0   IEFLD =       0   IEPOT =       0   IEDEN =       0
 WHERE =COMASS     WHERE =NUCLEI     WHERE =NUCLEI     WHERE =NUCLEI  
 OUTPUT=BOTH       OUTPUT=BOTH       OUTPUT=NONE       OUTPUT=BOTH    
 IEMINT=       0   IEFINT=       0                     IEDINT=       0
                                                       MORB  =       0
          EXTRAPOLATION IN EFFECT
          SOSCF IN EFFECT
 ORBITAL PRINTING OPTION: NPREO=     1 32767     2     1

     -------------------------------
     INTEGRAL TRANSFORMATION OPTIONS
     -------------------------------
     NWORD  =            0
     CUTOFF = 1.0E-10     MPTRAN =       0
     DIRTRF =       F     AOINTS =DUP     

          ----------------------
          INTEGRAL INPUT OPTIONS
          ----------------------
 NOPK  =       1 NORDER=       0 SCHWRZ=       T

 ..... DONE SETTING UP THE RUN .....
 STEP CPU TIME =     0.02 TOTAL CPU TIME =        0.0 (    0.0 MIN)
 TOTAL WALL CLOCK TIME=        0.8 SECONDS, CPU UTILIZATION IS   2.53%
 STEP CPU TIME =     0.00 TOTAL CPU TIME =        0.0 (    0.0 MIN)
 TOTAL WALL CLOCK TIME=        0.8 SECONDS, CPU UTILIZATION IS   2.50%

                    ----------------------
                    AO INTEGRAL TECHNOLOGY
                    ----------------------
     S,P,L SHELL ROTATED AXIS INTEGRALS, REPROGRAMMED BY
        KAZUYA ISHIMURA (IMS) AND JOSE SIERRA (SYNSTAR).
     S,P,D,L SHELL ROTATED AXIS INTEGRALS PROGRAMMED BY
        KAZUYA ISHIMURA (INSTITUTE FOR MOLECULAR SCIENCE).
     S,P,D,F,G SHELL TO TOTAL QUARTET ANGULAR MOMENTUM SUM 5,
        ERIC PROGRAM BY GRAHAM FLETCHER (ELORET AND NASA ADVANCED
        SUPERCOMPUTING DIVISION, AMES RESEARCH CENTER).
     S,P,D,F,G,L SHELL GENERAL RYS QUADRATURE PROGRAMMED BY
        MICHEL DUPUIS (PACIFIC NORTHWEST NATIONAL LABORATORY).
 STEP CPU TIME =     0.02 TOTAL CPU TIME =        0.0 (    0.0 MIN)
 TOTAL WALL CLOCK TIME=        1.0 SECONDS, CPU UTILIZATION IS   4.12%
 STEP CPU TIME =     0.00 TOTAL CPU TIME =        0.0 (    0.0 MIN)
 TOTAL WALL CLOCK TIME=        1.0 SECONDS, CPU UTILIZATION IS   4.12%
 Initialising fragments
 STEP CPU TIME =     0.00 TOTAL CPU TIME =        0.0 (    0.0 MIN)
 TOTAL WALL CLOCK TIME=        1.0 SECONDS, CPU UTILIZATION IS   4.08%
 STEP CPU TIME =     0.00 TOTAL CPU TIME =        0.0 (    0.0 MIN)
 TOTAL WALL CLOCK TIME=        1.0 SECONDS, CPU UTILIZATION IS   4.04%

 -----------------------------------------------------------------------
                  The Fragment Molecular Orbital (FMO) method.
                       The program is developed at the
                     Nanoscience Research Institute (NRI)
     (formerly, Research Institute for Computational Sciences, RICS)
 National Institute of Advanced Industrial Science and Technology (AIST)
     AIST Tsukuba Central 2, Umezono 1-1-1, Tsukuba, 305-8568, Japan.

                              Version 5.2
                    coded by D. G. Fedorov and K. Kitaura,
 with contributions from N. Asada, K.R. Brorsen, M. Chiba, C. Choi, N. Minezawa,
 T. Nagata, H. Nakata, Y. Nishimoto, S.R. Pruitt, C. Steinmann, and F. Zahariev.
       All publications using the FMO method in GAMESS should reference:
          D. G. Fedorov, K. Kitaura, J. Chem. Phys. 120, 6832 (2004).
 -----------------------------------------------------------------------

 Used memory (words):        17583
 Number of fragments:     16
 Number of layers:         1
 N-body FMO method:        2
 Number of atoms:         48
 Total charge:             0
 Total spin multiplicity:  1
 Number of basis sets:     1
 Number of LMO types:      0
 Number of boundaries:     0
 MonomerSCF convergence:   0.1000E-06
 Max monomerSCF iter:     30
 MonomerSCF criterion:     internal
 Max AOs per n-mer:       19       38
 Layer electron correlation information
     nbody=  2
    SCFTYP=RHF     
    MPLEVL=  0
    DFTTYP=NONE    
     CITYP=NONE    
     CCTYP=NONE    
     TDDFT=NONE    
 FMO method: EFMO2-RHF

 FMO approximations.
    Using point charge approximation for the 2e ESP with the VdW factor   2.00
    Using ES-dimer approximation with the VdW factor   0.30
    No gradient contribution from separated dimers.
    The uniform distances will be used in ESPs.
    Van der Waals radii in Angstrom are:
       R(O  )=  1.4000
       R(H  )=  1.2000

 FMO initial guess options.
    Using monomer density to form dimer guess.

 FMO extensions.
    Point charge screening parameters:    0.6000    0.6000

 FMO automation options.
    Number of atoms per fragment  3

 FMO SCF converger options.
    SCF convergers:
     65     65     65     65     65     65     65     65     65     65
    Fragment densities will be exchanged.

 FMO parallelisation options.
    Smart parallel load balancing: large jobs first.
    ESPs will be shell parallelised.
    Broadcast all fragments at once.
    Do the fragment initialisation in the reverse order.

 FMO properties and print-out level.
    Interfragment CT method:    4
       Compact print-out level.
    Atomic charges will be printed.

 Array dimensions maxbnd,maxknd,maxcbs,maxcao,maxbbd are:
                      33     10     15      5     15

 --------------------------------------------------



 ----------------------------------------------------------------------
 THIS IS AN EFFECTIVE FRAGMENT MOLECULAR ORBITAL (EFMO) RUN.
   USING EFP MODELS FOR MANY-BODY INTERACTIONS.

   ALL PUBLICATIONS USING EFMO SHOULD REFERENCE:
     C. STEINMANN, D.G. FEDOROV, J.H. JENSEN, J. CHEM. PHYS. A 114, 8705 (2010)

     EFMO STORAGE REQUIRES    222802 WORDS.

     EFP Electrostatic Options
       No screening of electrostaic moments
       Tang-Toennis style screening   0.6000   0.6000
       Ignore torque contribution on gradient
       Multipole expansion on atoms only

     EFP Polarization Options
       Distribute gradient by percentage between close atoms
       Ignore torque contribution on gradient

     EFP Dispersion Options
       No Dispersion
       Distribute gradient by percentage between close atoms
       Ignore torque contribution on gradient

     EFP Charge Transfer Options
       No Charge Transfer

     EFP Exchange Repulsion Options
       No Exchange Repulsion

 ----------------------------------------------------------------------


 Starting layer 1 nbody=2
 SCFTYP=RHF     MPLEVL=0 DFTTYP=NONE    CITYP=NONE    CCTYP=NONE    TDDFT=NONE    



 Running initial guess for monomer      16


          -------------
          GUESS OPTIONS
          -------------
          GUESS =HUCKEL            NORB  =       0          NORDER=       0
          MIX   =       F          PRTMO =       F          PUNMO =       F
          TOLZ  = 1.0E-08          TOLE  = 1.0E-05
          SYMDEN=       F          PURIFY=       F

 INITIAL GUESS ORBITALS GENERATED BY HUCKEL   ROUTINE.
 HUCKEL GUESS REQUIRES      5056 WORDS.

 SYMMETRIES FOR INITIAL GUESS ORBITALS FOLLOW.   BOTH SET(S).
     5 ORBITALS ARE OCCUPIED (    1 CORE ORBITALS).
     2=A        3=A        4=A        5=A        6=A        7=A        8=A   
     9=A       10=A       11=A       12=A       13=A       14=A       15=A   
 ...... END OF INITIAL ORBITAL SELECTION ......
 STEP CPU TIME =     0.02 TOTAL CPU TIME =        0.1 (    0.0 MIN)
 TOTAL WALL CLOCK TIME=        1.2 SECONDS, CPU UTILIZATION IS   5.00%

 Running initial guess for monomer      15


          -------------
          GUESS OPTIONS
          -------------
          GUESS =HUCKEL            NORB  =       0          NORDER=       0
          MIX   =       F          PRTMO =       F          PUNMO =       F
          TOLZ  = 1.0E-08          TOLE  = 1.0E-05
          SYMDEN=       F          PURIFY=       F

 INITIAL GUESS ORBITALS GENERATED BY HUCKEL   ROUTINE.
 HUCKEL GUESS REQUIRES      5056 WORDS.

 SYMMETRIES FOR INITIAL GUESS ORBITALS FOLLOW.   BOTH SET(S).
     5 ORBITALS ARE OCCUPIED (    1 CORE ORBITALS).
     2=A        3=A        4=A        5=A        6=A        7=A        8=A   
     9=A       10=A       11=A       12=A       13=A       14=A       15=A   
 ...... END OF INITIAL ORBITAL SELECTION ......
 STEP CPU TIME =     0.00 TOTAL CPU TIME =        0.1 (    0.0 MIN)
 TOTAL WALL CLOCK TIME=        1.2 SECONDS, CPU UTILIZATION IS   4.80%

 Running initial guess for monomer      14


          -------------
          GUESS OPTIONS
          -------------
          GUESS =HUCKEL            NORB  =       0          NORDER=       0
          MIX   =       F          PRTMO =       F          PUNMO =       F
          TOLZ  = 1.0E-08          TOLE  = 1.0E-05
          SYMDEN=       F          PURIFY=       F

 INITIAL GUESS ORBITALS GENERATED BY HUCKEL   ROUTINE.
 HUCKEL GUESS REQUIRES      5056 WORDS.

 SYMMETRIES FOR INITIAL GUESS ORBITALS FOLLOW.   BOTH SET(S).
     5 ORBITALS ARE OCCUPIED (    1 CORE ORBITALS).
     2=A        3=A        4=A        5=A        6=A        7=A        8=A   
     9=A       10=A       11=A       12=A       13=A       14=A       15=A   
 ...... END OF INITIAL ORBITAL SELECTION ......
 STEP CPU TIME =     0.01 TOTAL CPU TIME =        0.1 (    0.0 MIN)
 TOTAL WALL CLOCK TIME=        1.3 SECONDS, CPU UTILIZATION IS   5.38%

 Running initial guess for monomer      13


          -------------
          GUESS OPTIONS
          -------------
          GUESS =HUCKEL            NORB  =       0          NORDER=       0
          MIX   =       F          PRTMO =       F          PUNMO =       F
          TOLZ  = 1.0E-08          TOLE  = 1.0E-05
          SYMDEN=       F          PURIFY=       F

 INITIAL GUESS ORBITALS GENERATED BY HUCKEL   ROUTINE.
 HUCKEL GUESS REQUIRES      5056 WORDS.

 SYMMETRIES FOR INITIAL GUESS ORBITALS FOLLOW.   BOTH SET(S).
     5 ORBITALS ARE OCCUPIED (    1 CORE ORBITALS).
     2=A        3=A        4=A        5=A        6=A        7=A        8=A   
     9=A       10=A       11=A       12=A       13=A       14=A       15=A   
 ...... END OF INITIAL ORBITAL SELECTION ......
 STEP CPU TIME =     0.01 TOTAL CPU TIME =        0.1 (    0.0 MIN)
 TOTAL WALL CLOCK TIME=        1.5 SECONDS, CPU UTILIZATION IS   5.26%

 Running initial guess for monomer      12


          -------------
          GUESS OPTIONS
          -------------
          GUESS =HUCKEL            NORB  =       0          NORDER=       0
          MIX   =       F          PRTMO =       F          PUNMO =       F
          TOLZ  = 1.0E-08          TOLE  = 1.0E-05
          SYMDEN=       F          PURIFY=       F

 INITIAL GUESS ORBITALS GENERATED BY HUCKEL   ROUTINE.
 HUCKEL GUESS REQUIRES      5056 WORDS.

 SYMMETRIES FOR INITIAL GUESS ORBITALS FOLLOW.   BOTH SET(S).
     5 ORBITALS ARE OCCUPIED (    1 CORE ORBITALS).
     2=A        3=A        4=A        5=A        6=A        7=A        8=A   
     9=A       10=A       11=A       12=A       13=A       14=A       15=A   
 ...... END OF INITIAL ORBITAL SELECTION ......
 STEP CPU TIME =     0.01 TOTAL CPU TIME =        0.1 (    0.0 MIN)
 TOTAL WALL CLOCK TIME=        1.6 SECONDS, CPU UTILIZATION IS   5.77%

 Running initial guess for monomer      11


          -------------
          GUESS OPTIONS
          -------------
          GUESS =HUCKEL            NORB  =       0          NORDER=       0
          MIX   =       F          PRTMO =       F          PUNMO =       F
          TOLZ  = 1.0E-08          TOLE  = 1.0E-05
          SYMDEN=       F          PURIFY=       F

 INITIAL GUESS ORBITALS GENERATED BY HUCKEL   ROUTINE.
 HUCKEL GUESS REQUIRES      5056 WORDS.

 SYMMETRIES FOR INITIAL GUESS ORBITALS FOLLOW.   BOTH SET(S).
     5 ORBITALS ARE OCCUPIED (    1 CORE ORBITALS).
     2=A        3=A        4=A        5=A        6=A        7=A        8=A   
     9=A       10=A       11=A       12=A       13=A       14=A       15=A   
 ...... END OF INITIAL ORBITAL SELECTION ......
 STEP CPU TIME =     0.01 TOTAL CPU TIME =        0.1 (    0.0 MIN)
 TOTAL WALL CLOCK TIME=        1.6 SECONDS, CPU UTILIZATION IS   6.25%

 Running initial guess for monomer      10


          -------------
          GUESS OPTIONS
          -------------
          GUESS =HUCKEL            NORB  =       0          NORDER=       0
          MIX   =       F          PRTMO =       F          PUNMO =       F
          TOLZ  = 1.0E-08          TOLE  = 1.0E-05
          SYMDEN=       F          PURIFY=       F

 INITIAL GUESS ORBITALS GENERATED BY HUCKEL   ROUTINE.
 HUCKEL GUESS REQUIRES      5056 WORDS.

 SYMMETRIES FOR INITIAL GUESS ORBITALS FOLLOW.   BOTH SET(S).
     5 ORBITALS ARE OCCUPIED (    1 CORE ORBITALS).
     2=A        3=A        4=A        5=A        6=A        7=A        8=A   
     9=A       10=A       11=A       12=A       13=A       14=A       15=A   
 ...... END OF INITIAL ORBITAL SELECTION ......
 STEP CPU TIME =     0.00 TOTAL CPU TIME =        0.1 (    0.0 MIN)
 TOTAL WALL CLOCK TIME=        1.6 SECONDS, CPU UTILIZATION IS   6.10%

 Running initial guess for monomer       9


          -------------
          GUESS OPTIONS
          -------------
          GUESS =HUCKEL            NORB  =       0          NORDER=       0
          MIX   =       F          PRTMO =       F          PUNMO =       F
          TOLZ  = 1.0E-08          TOLE  = 1.0E-05
          SYMDEN=       F          PURIFY=       F

 INITIAL GUESS ORBITALS GENERATED BY HUCKEL   ROUTINE.
 HUCKEL GUESS REQUIRES      5056 WORDS.

 SYMMETRIES FOR INITIAL GUESS ORBITALS FOLLOW.   BOTH SET(S).
     5 ORBITALS ARE OCCUPIED (    1 CORE ORBITALS).
     2=A        3=A        4=A        5=A        6=A        7=A        8=A   
     9=A       10=A       11=A       12=A       13=A       14=A       15=A   
 ...... END OF INITIAL ORBITAL SELECTION ......
 STEP CPU TIME =     0.00 TOTAL CPU TIME =        0.1 (    0.0 MIN)
 TOTAL WALL CLOCK TIME=        1.7 SECONDS, CPU UTILIZATION IS   5.92%

 Running initial guess for monomer       8


          -------------
          GUESS OPTIONS
          -------------
          GUESS =HUCKEL            NORB  =       0          NORDER=       0
          MIX   =       F          PRTMO =       F          PUNMO =       F
          TOLZ  = 1.0E-08          TOLE  = 1.0E-05
          SYMDEN=       F          PURIFY=       F

 INITIAL GUESS ORBITALS GENERATED BY HUCKEL   ROUTINE.
 HUCKEL GUESS REQUIRES      5056 WORDS.

 SYMMETRIES FOR INITIAL GUESS ORBITALS FOLLOW.   BOTH SET(S).
     5 ORBITALS ARE OCCUPIED (    1 CORE ORBITALS).
     2=A        3=A        4=A        5=A        6=A        7=A        8=A   
     9=A       10=A       11=A       12=A       13=A       14=A       15=A   
 ...... END OF INITIAL ORBITAL SELECTION ......
 STEP CPU TIME =     0.01 TOTAL CPU TIME =        0.1 (    0.0 MIN)
 TOTAL WALL CLOCK TIME=        1.7 SECONDS, CPU UTILIZATION IS   6.36%

 Running initial guess for monomer       7


          -------------
          GUESS OPTIONS
          -------------
          GUESS =HUCKEL            NORB  =       0          NORDER=       0
          MIX   =       F          PRTMO =       F          PUNMO =       F
          TOLZ  = 1.0E-08          TOLE  = 1.0E-05
          SYMDEN=       F          PURIFY=       F

 INITIAL GUESS ORBITALS GENERATED BY HUCKEL   ROUTINE.
 HUCKEL GUESS REQUIRES      5056 WORDS.

 SYMMETRIES FOR INITIAL GUESS ORBITALS FOLLOW.   BOTH SET(S).
     5 ORBITALS ARE OCCUPIED (    1 CORE ORBITALS).
     2=A        3=A        4=A        5=A        6=A        7=A        8=A   
     9=A       10=A       11=A       12=A       13=A       14=A       15=A   
 ...... END OF INITIAL ORBITAL SELECTION ......
 STEP CPU TIME =     0.01 TOTAL CPU TIME =        0.1 (    0.0 MIN)
 TOTAL WALL CLOCK TIME=        1.8 SECONDS, CPU UTILIZATION IS   6.67%

 Running initial guess for monomer       6


          -------------
          GUESS OPTIONS
          -------------
          GUESS =HUCKEL            NORB  =       0          NORDER=       0
          MIX   =       F          PRTMO =       F          PUNMO =       F
          TOLZ  = 1.0E-08          TOLE  = 1.0E-05
          SYMDEN=       F          PURIFY=       F

 INITIAL GUESS ORBITALS GENERATED BY HUCKEL   ROUTINE.
 HUCKEL GUESS REQUIRES      5056 WORDS.

 SYMMETRIES FOR INITIAL GUESS ORBITALS FOLLOW.   BOTH SET(S).
     5 ORBITALS ARE OCCUPIED (    1 CORE ORBITALS).
     2=A        3=A        4=A        5=A        6=A        7=A        8=A   
     9=A       10=A       11=A       12=A       13=A       14=A       15=A   
 ...... END OF INITIAL ORBITAL SELECTION ......
 STEP CPU TIME =     0.00 TOTAL CPU TIME =        0.1 (    0.0 MIN)
 TOTAL WALL CLOCK TIME=        1.8 SECONDS, CPU UTILIZATION IS   6.52%

 Running initial guess for monomer       5


          -------------
          GUESS OPTIONS
          -------------
          GUESS =HUCKEL            NORB  =       0          NORDER=       0
          MIX   =       F          PRTMO =       F          PUNMO =       F
          TOLZ  = 1.0E-08          TOLE  = 1.0E-05
          SYMDEN=       F          PURIFY=       F

 INITIAL GUESS ORBITALS GENERATED BY HUCKEL   ROUTINE.
 HUCKEL GUESS REQUIRES      5056 WORDS.

 SYMMETRIES FOR INITIAL GUESS ORBITALS FOLLOW.   BOTH SET(S).
     5 ORBITALS ARE OCCUPIED (    1 CORE ORBITALS).
     2=A        3=A        4=A        5=A        6=A        7=A        8=A   
     9=A       10=A       11=A       12=A       13=A       14=A       15=A   
 ...... END OF INITIAL ORBITAL SELECTION ......
 STEP CPU TIME =     0.01 TOTAL CPU TIME =        0.1 (    0.0 MIN)
 TOTAL WALL CLOCK TIME=        1.9 SECONDS, CPU UTILIZATION IS   6.88%

 Running initial guess for monomer       4


          -------------
          GUESS OPTIONS
          -------------
          GUESS =HUCKEL            NORB  =       0          NORDER=       0
          MIX   =       F          PRTMO =       F          PUNMO =       F
          TOLZ  = 1.0E-08          TOLE  = 1.0E-05
          SYMDEN=       F          PURIFY=       F

 INITIAL GUESS ORBITALS GENERATED BY HUCKEL   ROUTINE.
 HUCKEL GUESS REQUIRES      5056 WORDS.

 SYMMETRIES FOR INITIAL GUESS ORBITALS FOLLOW.   BOTH SET(S).
     5 ORBITALS ARE OCCUPIED (    1 CORE ORBITALS).
     2=A        3=A        4=A        5=A        6=A        7=A        8=A   
     9=A       10=A       11=A       12=A       13=A       14=A       15=A   
 ...... END OF INITIAL ORBITAL SELECTION ......
 STEP CPU TIME =     0.00 TOTAL CPU TIME =        0.1 (    0.0 MIN)
 TOTAL WALL CLOCK TIME=        1.9 SECONDS, CPU UTILIZATION IS   6.74%

 Running initial guess for monomer       3


          -------------
          GUESS OPTIONS
          -------------
          GUESS =HUCKEL            NORB  =       0          NORDER=       0
          MIX   =       F          PRTMO =       F          PUNMO =       F
          TOLZ  = 1.0E-08          TOLE  = 1.0E-05
          SYMDEN=       F          PURIFY=       F

 INITIAL GUESS ORBITALS GENERATED BY HUCKEL   ROUTINE.
 HUCKEL GUESS REQUIRES      5056 WORDS.

 SYMMETRIES FOR INITIAL GUESS ORBITALS FOLLOW.   BOTH SET(S).
     5 ORBITALS ARE OCCUPIED (    1 CORE ORBITALS).
     2=A        3=A        4=A        5=A        6=A        7=A        8=A   
     9=A       10=A       11=A       12=A       13=A       14=A       15=A   
 ...... END OF INITIAL ORBITAL SELECTION ......
 STEP CPU TIME =     0.00 TOTAL CPU TIME =        0.1 (    0.0 MIN)
 TOTAL WALL CLOCK TIME=        2.0 SECONDS, CPU UTILIZATION IS   6.60%

 Running initial guess for monomer       2


          -------------
          GUESS OPTIONS
          -------------
          GUESS =HUCKEL            NORB  =       0          NORDER=       0
          MIX   =       F          PRTMO =       F          PUNMO =       F
          TOLZ  = 1.0E-08          TOLE  = 1.0E-05
          SYMDEN=       F          PURIFY=       F

 INITIAL GUESS ORBITALS GENERATED BY HUCKEL   ROUTINE.
 HUCKEL GUESS REQUIRES      5056 WORDS.

 SYMMETRIES FOR INITIAL GUESS ORBITALS FOLLOW.   BOTH SET(S).
     5 ORBITALS ARE OCCUPIED (    1 CORE ORBITALS).
     2=A        3=A        4=A        5=A        6=A        7=A        8=A   
     9=A       10=A       11=A       12=A       13=A       14=A       15=A   
 ...... END OF INITIAL ORBITAL SELECTION ......
 STEP CPU TIME =     0.02 TOTAL CPU TIME =        0.2 (    0.0 MIN)
 TOTAL WALL CLOCK TIME=        2.0 SECONDS, CPU UTILIZATION IS   7.46%

 Running initial guess for monomer       1


          -------------
          GUESS OPTIONS
          -------------
          GUESS =HUCKEL            NORB  =       0          NORDER=       0
          MIX   =       F          PRTMO =       F          PUNMO =       F
          TOLZ  = 1.0E-08          TOLE  = 1.0E-05
          SYMDEN=       F          PURIFY=       F

 INITIAL GUESS ORBITALS GENERATED BY HUCKEL   ROUTINE.
 HUCKEL GUESS REQUIRES      5056 WORDS.

 SYMMETRIES FOR INITIAL GUESS ORBITALS FOLLOW.   BOTH SET(S).
     5 ORBITALS ARE OCCUPIED (    1 CORE ORBITALS).
     2=A        3=A        4=A        5=A        6=A        7=A        8=A   
     9=A       10=A       11=A       12=A       13=A       14=A       15=A   
 ...... END OF INITIAL ORBITAL SELECTION ......
 STEP CPU TIME =     0.00 TOTAL CPU TIME =        0.2 (    0.0 MIN)
 TOTAL WALL CLOCK TIME=        2.1 SECONDS, CPU UTILIZATION IS   7.28%

 There are         120 separated and       0 SCF (       0 of them correlated) dimers.
 Estimate of max dimer size:    0 AOs,    0 occ. MOs

 Fragment statistics

      I  NAME     Q NAT0 NATB NA  NAO LAY MUL SCFTYP        NOP     MOL    CONV
 ==============================================================================
      1 frg00001  0    3   0    5   19 1  1 G RHF             0      -1      -1
      2 frg00002  0    3   0    5   19 1  1 G RHF             0      -1      -1
      3 frg00003  0    3   0    5   19 1  1 G RHF             0      -1      -1
      4 frg00004  0    3   0    5   19 1  1 G RHF             0      -1      -1
      5 frg00005  0    3   0    5   19 1  1 G RHF             0      -1      -1
      6 frg00006  0    3   0    5   19 1  1 G RHF             0      -1      -1
      7 frg00007  0    3   0    5   19 1  1 G RHF             0      -1      -1
      8 frg00008  0    3   0    5   19 1  1 G RHF             0      -1      -1
      9 frg00009  0    3   0    5   19 1  1 G RHF             0      -1      -1
     10 frg00010  0    3   0    5   19 1  1 G RHF             0      -1      -1
     11 frg00011  0    3   0    5   19 1  1 G RHF             0      -1      -1
     12 frg00012  0    3   0    5   19 1  1 G RHF             0      -1      -1
     13 frg00013  0    3   0    5   19 1  1 G RHF             0      -1      -1
     14 frg00014  0    3   0    5   19 1  1 G RHF             0      -1      -1
     15 frg00015  0    3   0    5   19 1  1 G RHF             0      -1      -1
     16 frg00016  0    3   0    5   19 1  1 G RHF             0      -1      -1

 Close fragment pairs, distance relative to vdW radii


 RHF      monomer      2 corr= NONE       , L1=    19, L0=    18 ID=      1


 AO spaces for     2     0     0 n-mer: L1=    19, L0=    18

 ITER EX DEM     TOTAL ENERGY        E CHANGE  DENSITY CHANGE     ORB. GRAD
   1  0  0      -75.7689166661   -75.7689166661   0.281178678   0.000000000
          ---------------START SECOND ORDER SCF---------------
   2  1  0      -75.9964438931    -0.2275272270   0.059258152   0.050058637
   3  2  0      -76.0078132216    -0.0113693285   0.020045159   0.012272799
   4  3  0      -76.0088609821    -0.0010477605   0.001715574   0.001516178
   5  4  0      -76.0088805904    -0.0000196083   0.001090845   0.000657309
   6  5  0      -76.0088843383    -0.0000037479   0.000256628   0.000211827
   7  6  0      -76.0088843967    -0.0000000584   0.000071647   0.000074741
   8  7  0      -76.0088844117    -0.0000000150   0.000012462   0.000007746
   9  8  0      -76.0088844121    -0.0000000004   0.000004688   0.000003718
  10  9  0      -76.0088844122    -0.0000000000   0.000000588   0.000000357
  11 10  0      -76.0088844122    -0.0000000000   0.000000138   0.000000056
  12 11  0      -76.0088844122    -0.0000000000   0.000000000   0.000000005

          -----------------
          DENSITY CONVERGED
          -----------------
     TIME TO FORM FOCK OPERATORS=       0.0 SECONDS (       0.0 SEC/ITER)
     TIME TO SOLVE SCF EQUATIONS=       0.0 SECONDS (       0.0 SEC/ITER)

 FINAL RHF ENERGY IS      -76.0088844122 AFTER  12 ITERATIONS
 ...... END OF RHF CALCULATION ......
 STEP CPU TIME =     0.02 TOTAL CPU TIME =        0.2 (    0.0 MIN)
 TOTAL WALL CLOCK TIME=        2.3 SECONDS, CPU UTILIZATION IS   7.52%

     --------------------------------------------------
     GENERATING EFMO PARAMETERS FOR FMO MONOMER #    2
     --------------------------------------------------

 PROCESSING $STONE INPUT...
 THE NUMBER OF "BOUNDARY" CORE MOS IS  0
 THE NUMBER OF MOS WITH ZERO OCCUPATION NUMBER IS  0
 TOTAL ELECTRON CHARGE =    -10.0000000000

          ---------------------------------------------
          DISTRIBUTED MULTIPOLAR ANALYSIS (A. J. STONE)
          ---------------------------------------------

 NET CHARGES AT POINTS                    COORDINATES
 ---------------------                    -----------
    #   NAME        CHARGE          X           Y           Z
    1   ZO          8.00000     -6.72560    -3.48365    -4.05463
    2   ZH          1.00000     -7.51519    -4.49272    -5.33614
    3   ZH          1.00000     -5.03007    -3.24799    -4.67526
    4   O          -8.81969     -6.72560    -3.48365    -4.05463
    5   H          -0.59013     -7.51519    -4.49272    -5.33614
    6   H          -0.59018     -5.03007    -3.24799    -4.67526

 THE DISTRIBUTED MULTIPOLE ANALYSIS IS FOR THE -ELECTRONIC- PART ONLY
 OF THE FOLLOWING MOMENTS.  ALL QUANTITIES ARE IN ATOMIC UNITS


 FIRST MOMENTS AT POINTS
 -----------------------
 NAME               X             Y             Z
 O             -0.03959       0.03154       0.07918
 H             -0.02214      -0.02578      -0.03154
 H              0.04439       0.00737      -0.01415

 SECOND MOMENTS AT POINTS
 ------------------------
 NAME           XX         YY         ZZ         XY         XZ         YZ
 O          -4.47859   -4.70119   -4.64211    0.12033    0.01618    0.09446
 H          -0.28889   -0.28624   -0.28035    0.00477    0.00566    0.00937
 H          -0.27605   -0.29397   -0.29010    0.00202   -0.00776   -0.00012

 THIRD MOMENTS AT POINTS
 -----------------------
 NAME           XXX        YYY        ZZZ        XXY        XXZ        XYY
                YYZ        XZZ        YZZ        XYZ
 O          -0.37850    0.10834    0.24849    0.00609    0.22005    0.03752
             0.12766    0.03932    0.12181    0.09869
 H          -0.02453   -0.02718   -0.02728   -0.00738   -0.00940   -0.00467
            -0.00557   -0.00171   -0.00041    0.00593
 H           0.02887    0.00904   -0.01720   -0.00069    0.00476    0.01863
            -0.00635    0.01444    0.00248    0.00108
 STEP CPU TIME =     0.00 TOTAL CPU TIME =        0.2 (    0.0 MIN)
 TOTAL WALL CLOCK TIME=        2.3 SECONDS, CPU UTILIZATION IS   7.39%

          -----------------------------
          LOCALIZATION INPUT PARAMETERS
          -----------------------------
           LOCAL=BOYS          NOUTA=       1
          PRTLOC=       F      NOUTB=       0
          MAXLOC=    1000     CVGLOC=1.00E-07
           FCORE=       T     SYMLOC=       F
          MOIDON=       F     EDCOMP=       F
          DIPDCM=       F      NPROT=       0
          QADDCM=       F     DEPRNT=       F
          POLNUM=       F     ORIENT=       F
          POLDYN=       F      VMTOL=1.50E-01
          NPRDTL=       2
          MOOUTA =      1

          -------------------------
          BOYS ORBITAL LOCALIZATION
          -------------------------
          S.F.BOYS, IN "QUANTUM THEORY OF ATOMS, MOLECULES, AND SOLIDS"
          P.O.LOWDIN, ED. ACADEMIC PRESS, NY, 1966 PP253-266.

          THIS LOCALIZATION REQUIRES      1107 WORDS OF MEMORY.
          THIS LOCALIZATION HAS    5 ORBITALS, OF WHICH   1 ARE FROZEN.

          THE INITIAL LOCALIZATION SUM IS   1926.167543 DEBYE**2
          BOYS ITERATION  10 ORBITAL CHANGE=    2.2696815441E-06
          LOCALIZATION CONVERGED IN  18 ITERATIONS
            THE FINAL LOCALIZATION SUM IS   1941.497369 DEBYE**2

          THE BOYS LOCALIZED ORBITALS ARE

                      1          2          3          4          5

    1  O  1  S   -0.995793   0.095383  -0.095095  -0.127704   0.127704
    2  O  1  S   -0.021956  -0.201722   0.200848   0.290029  -0.290029
    3  O  1  X   -0.000653   0.200107   0.422816   0.017703   0.244108
    4  O  1  Y    0.000569   0.252707   0.060280  -0.277462  -0.473594
    5  O  1  Z    0.001391   0.319496  -0.152125   0.455207  -0.025134
    6  O  1  S    0.008101  -0.170473   0.171226   0.364672  -0.364672
    7  O  1  X    0.000733   0.109745   0.269562   0.019799   0.189746
    8  O  1  Y   -0.000637   0.163531   0.026513  -0.227044  -0.374075
    9  O  1  Z   -0.001558   0.218772  -0.117798   0.352220  -0.008004
   10  O  1 XX    0.000164   0.019531   0.024290   0.010852  -0.001297
   11  O  1 YY   -0.000137   0.001461  -0.020477   0.016624   0.007428
   12  O  1 ZZ   -0.000027  -0.020992  -0.003813  -0.027476  -0.006131
   13  O  1 XY    0.000172  -0.007805  -0.001416  -0.004527  -0.016139
   14  O  1 XZ   -0.000003  -0.013692  -0.033205   0.009216  -0.011965
   15  O  1 YZ    0.000157  -0.031509  -0.001249   0.005160   0.020772
   16  H  2  S   -0.000274  -0.296269  -0.029682  -0.029438   0.029438
   17  H  2  S   -0.001931  -0.105736  -0.052580  -0.048292   0.048292
   18  H  3  S   -0.000288   0.029708   0.295473  -0.029473   0.029473
   19  H  3  S   -0.001905   0.052503   0.107386  -0.048478   0.048478
 ...... END OF ORBITAL LOCALIZATION ......
 STEP CPU TIME =     0.01 TOTAL CPU TIME =        0.2 (    0.0 MIN)
 TOTAL WALL CLOCK TIME=        2.3 SECONDS, CPU UTILIZATION IS   7.73%
 NORMALIZED MULL. POP. FOR EACH LMO
   1   1.000 0.000 0.000
   2   0.707 0.304-0.011
   3   0.707-0.011 0.304
   4   1.017-0.008-0.008
   5   1.017-0.008-0.008

 ATOMS ARE ASSIGNED TO THE LMOS BASED ON THEIR MULLIKEN POPULATION.
 (MULLIKEN POP. THRESHOLD(VMTOL)=0.150 WAS USED)
 ORBITAL   1 BELONGS TO ATOM(S)   1
 ORBITAL   2 BELONGS TO ATOM(S)   1  2
 ORBITAL   3 BELONGS TO ATOM(S)   1  3
 ORBITAL   4 BELONGS TO ATOM(S)   1
 ORBITAL   5 BELONGS TO ATOM(S)   1
 
  LCD DIPOLES 
 
 LMO    XP        YP        ZP        MUX       MUY       MUZ     TOTAL
   1 -6.72550  -3.48373  -4.05483  -0.00048   0.00042   0.00102   0.00120
   2 -7.14561  -4.03917  -4.76907   0.12822   0.25919   0.37458   0.47321
   3 -5.79779  -3.36346  -4.40955  -0.40689  -0.01199   0.22676   0.46597
   4 -6.69631  -3.79990  -3.57031  -0.14888   1.60770  -2.46204   2.94423
   5 -6.98674  -2.96674  -4.04740   1.32754  -2.62770  -0.03674   2.94423

          -----------------------------------
           LOCALIZED ALPHA POLARIZABILITIES 
                 IN ANGSTROMS**3            
          -----------------------------------

           CORE ALPHA POLARIZABILITY TENSOR 
                      UX             UY             UZ
           UX     0.000143296    0.000011016    0.000000511
           UY     0.000011016    0.000121830    0.000009530
           UZ     0.000000511    0.000009530    0.000128864

           MEAN ALPHA POLARIZABILITY =     0.000131330


  LMO ALPHA POLARIZABILITY TENSOR FOR BOND BETWEEN ATOM  1 AND ATOM  2
                      UX             UY             UZ
           UX     0.136634032    0.086417323    0.095654418
           UY     0.087199660    0.151817652    0.131955808
           UZ     0.097020647    0.132432063    0.218069088

           MEAN ALPHA POLARIZABILITY =     0.168840257


  LMO ALPHA POLARIZABILITY TENSOR FOR BOND BETWEEN ATOM  1 AND ATOM  3
                      UX             UY             UZ
           UX     0.351900756    0.049880027   -0.099106690
           UY     0.049099896    0.060861605   -0.003953552
           UZ    -0.100469067   -0.004428464    0.099437685

           MEAN ALPHA POLARIZABILITY =     0.170733349


  LMO ALPHA POLARIZABILITY TENSOR FOR CORE OR LONE PAIR ON ATOM  1
                      UX             UY             UZ
           UX     0.115499682    0.021247279    0.003540376
           UY     0.021721272    0.097007664   -0.025428900
           UZ     0.002653132   -0.023670303    0.160281804

           MEAN ALPHA POLARIZABILITY =     0.124263050


  LMO ALPHA POLARIZABILITY TENSOR FOR CORE OR LONE PAIR ON ATOM  1
                      UX             UY             UZ
           UX     0.136906547   -0.018223985   -0.002417415
           UY    -0.018700184    0.150030054    0.026138949
           UZ    -0.001534024    0.024379009    0.085852569

           MEAN ALPHA POLARIZABILITY =     0.124263057


               -----------------------------------
                TOTAL ALPHA POLARIZABILITY TENSOR 
               -----------------------------------
                      UX             UY             UZ
           UX     0.741084313    0.139331660   -0.002328801
           UY     0.139331660    0.459838804    0.128721835
           UZ    -0.002328801    0.128721835    0.563770010

           MEAN ALPHA POLARIZABILITY =     0.588231042


          -----------------------------------------------
           LOCALIZED ALPHA POLARIZABILITY TENSORS FOR 
           LONE PAIRS AND BONDS PROJECTED ONTO THE Z-AXIS 
          -----------------------------------------------


  LMO ALPHA POLARIZABILITY TENSOR FOR BOND BETWEEN ATOM  1 AND ATOM  2
                      UX             UY             UZ
           UX     0.058138943    0.013506080    0.005039466
           UY     0.013506080    0.060714625    0.005542849
           UZ     0.006145957    0.006759866    0.387667204

           MEAN ALPHA POLARIZABILITY =     0.168840257


  LMO ALPHA POLARIZABILITY TENSOR FOR BOND BETWEEN ATOM  1 AND ATOM  3
                      UX             UY             UZ
           UX     0.052880926   -0.011714943   -0.003772244
           UY    -0.011714943    0.065982859    0.006431404
           UZ    -0.004602064    0.007846189    0.393336261

           MEAN ALPHA POLARIZABILITY =     0.170733349


  LMO ALPHA POLARIZABILITY TENSOR FOR CORE OR LONE PAIR ON ATOM  1
                      UX             UY             UZ
           UX     0.119287687    0.016689536    0.009533148
           UY     0.016690346    0.090705589   -0.019980461
           UZ     0.010396252   -0.021813378    0.162795874

           MEAN ALPHA POLARIZABILITY =     0.124263050


  LMO ALPHA POLARIZABILITY TENSOR FOR CORE OR LONE PAIR ON ATOM  1
                      UX             UY             UZ
           UX     0.124713730   -0.009696250   -0.005313281
           UY    -0.009697060    0.085279564   -0.021491138
           UZ    -0.005789507   -0.023460336    0.162795876

           MEAN ALPHA POLARIZABILITY =     0.124263057

 ...... DONE WITH CPHF CONTRIBUTIONS ......
 STEP CPU TIME =     0.00 TOTAL CPU TIME =        0.2 (    0.0 MIN)
 TOTAL WALL CLOCK TIME=        2.4 SECONDS, CPU UTILIZATION IS   7.53%

 Atomic populations
     I    Z      Q
     1   8.0   8.8954746
     2   1.0   0.5519458
     3   1.0   0.5525796

 Iter=  1 iFrag=      2 EFMOu=   -76.008884412

 RHF      monomer      3 corr= NONE       , L1=    19, L0=    18 ID=      2


 AO spaces for     3     0     0 n-mer: L1=    19, L0=    18

 ITER EX DEM     TOTAL ENERGY        E CHANGE  DENSITY CHANGE     ORB. GRAD
   1  0  0      -75.7680164074   -75.7680164074   0.283449236   0.000000000
          ---------------START SECOND ORDER SCF---------------
   2  1  0      -75.9962763132    -0.2282599058   0.058149865   0.050412465
   3  2  0      -76.0075869664    -0.0113106532   0.019510540   0.012018630
   4  3  0      -76.0086154304    -0.0010284640   0.002748112   0.001900910
   5  4  0      -76.0086354584    -0.0000200279   0.001174676   0.000810967
   6  5  0      -76.0086395610    -0.0000041026   0.000335305   0.000313481
   7  6  0      -76.0086397548    -0.0000001938   0.000048003   0.000033957
   8  7  0      -76.0086397586    -0.0000000038   0.000014499   0.000007568
   9  8  0      -76.0086397590    -0.0000000004   0.000001939   0.000001489
  10  9  0      -76.0086397590    -0.0000000000   0.000000784   0.000000343
  11 10  0      -76.0086397590    -0.0000000000   0.000000037   0.000000027
  12 11  0      -76.0086397590    -0.0000000000   0.000000000   0.000000006

          -----------------
          DENSITY CONVERGED
          -----------------
     TIME TO FORM FOCK OPERATORS=       0.0 SECONDS (       0.0 SEC/ITER)
     TIME TO SOLVE SCF EQUATIONS=       0.0 SECONDS (       0.0 SEC/ITER)

 FINAL RHF ENERGY IS      -76.0086397590 AFTER  12 ITERATIONS
 ...... END OF RHF CALCULATION ......
 STEP CPU TIME =     0.01 TOTAL CPU TIME =        0.2 (    0.0 MIN)
 TOTAL WALL CLOCK TIME=        2.5 SECONDS, CPU UTILIZATION IS   7.60%

     --------------------------------------------------
     GENERATING EFMO PARAMETERS FOR FMO MONOMER #    3
     --------------------------------------------------

 PROCESSING $STONE INPUT...
 THE NUMBER OF "BOUNDARY" CORE MOS IS  0
 THE NUMBER OF MOS WITH ZERO OCCUPATION NUMBER IS  0
 TOTAL ELECTRON CHARGE =    -10.0000000000

          ---------------------------------------------
          DISTRIBUTED MULTIPOLAR ANALYSIS (A. J. STONE)
          ---------------------------------------------

 NET CHARGES AT POINTS                    COORDINATES
 ---------------------                    -----------
    #   NAME        CHARGE          X           Y           Z
    1   ZO          8.00000     -1.47518     1.03863     2.94736
    2   ZH          1.00000     -2.90737    -0.02714     2.58996
    3   ZH          1.00000     -1.79766     2.49979     1.90919
    4   O          -8.81770     -1.47518     1.03863     2.94736
    5   H          -0.59115     -2.90737    -0.02714     2.58996
    6   H          -0.59115     -1.79766     2.49979     1.90919

 THE DISTRIBUTED MULTIPOLE ANALYSIS IS FOR THE -ELECTRONIC- PART ONLY
 OF THE FOLLOWING MOMENTS.  ALL QUANTITIES ARE IN ATOMIC UNITS


 FIRST MOMENTS AT POINTS
 -----------------------
 NAME               X             Y             Z
 O              0.07598      -0.01724       0.06050
 H             -0.03612      -0.02828      -0.00822
 H             -0.00702       0.03803      -0.02610

 SECOND MOMENTS AT POINTS
 ------------------------
 NAME           XX         YY         ZZ         XY         XZ         YZ
 O          -4.62788   -4.49127   -4.70508    0.10696    0.05296   -0.10072
 H          -0.28103   -0.28817   -0.29393    0.00951    0.00448    0.00209
 H          -0.29357   -0.28191   -0.28796   -0.00325    0.00335   -0.01002

 THIRD MOMENTS AT POINTS
 -----------------------
 NAME           XXX        YYY        ZZZ        XXY        XXZ        XYY
                YYZ        XZZ        YZZ        XYZ
 O           0.29864   -0.16450    0.15185    0.14985    0.07533    0.20370
             0.22099    0.06037   -0.11325    0.00694
 H          -0.02887   -0.02857   -0.01101    0.00102    0.00132   -0.00634
            -0.00176   -0.01435   -0.01095    0.00341
 H          -0.00982    0.03050   -0.02724    0.01480   -0.01044    0.00070
             0.00179   -0.00075    0.00671   -0.00336
 STEP CPU TIME =     0.01 TOTAL CPU TIME =        0.2 (    0.0 MIN)
 TOTAL WALL CLOCK TIME=        2.5 SECONDS, CPU UTILIZATION IS   7.91%

          -----------------------------
          LOCALIZATION INPUT PARAMETERS
          -----------------------------
           LOCAL=BOYS          NOUTA=       1
          PRTLOC=       F      NOUTB=       0
          MAXLOC=    1000     CVGLOC=1.00E-07
           FCORE=       T     SYMLOC=       F
          MOIDON=       F     EDCOMP=       F
          DIPDCM=       F      NPROT=       0
          QADDCM=       F     DEPRNT=       F
          POLNUM=       F     ORIENT=       F
          POLDYN=       F      VMTOL=1.50E-01
          NPRDTL=       2
          MOOUTA =      1

          -------------------------
          BOYS ORBITAL LOCALIZATION
          -------------------------
          S.F.BOYS, IN "QUANTUM THEORY OF ATOMS, MOLECULES, AND SOLIDS"
          P.O.LOWDIN, ED. ACADEMIC PRESS, NY, 1966 PP253-266.

          THIS LOCALIZATION REQUIRES      1107 WORDS OF MEMORY.
          THIS LOCALIZATION HAS    5 ORBITALS, OF WHICH   1 ARE FROZEN.

          THE INITIAL LOCALIZATION SUM IS    306.152890 DEBYE**2
          BOYS ITERATION  10 ORBITAL CHANGE=    2.6660036079E-05
          BOYS ITERATION  20 ORBITAL CHANGE=    0.0000000000E+00
          LOCALIZATION CONVERGED IN  20 ITERATIONS
            THE FINAL LOCALIZATION SUM IS    321.506072 DEBYE**2

          THE BOYS LOCALIZED ORBITALS ARE

                      1          2          3          4          5

    1  O  1  S    0.995796  -0.128118  -0.094800  -0.128118  -0.094818
    2  O  1  S    0.021943   0.291122   0.200221   0.291122   0.200276
    3  O  1  X   -0.001269  -0.010577  -0.074211   0.444706  -0.354261
    4  O  1  Y    0.000285   0.142871   0.366958  -0.240548  -0.270527
    5  O  1  Z   -0.001009   0.513129  -0.256198  -0.167925  -0.084522
    6  O  1  S   -0.008092   0.365808   0.170027   0.365808   0.169981
    7  O  1  X    0.001432  -0.019672  -0.067437   0.344437  -0.238362
    8  O  1  Y   -0.000322   0.116778   0.229038  -0.189858  -0.160161
    9  O  1  Z    0.001138   0.401458  -0.174025  -0.143210  -0.069177
   10  O  1 XX    0.000011   0.009085  -0.012942  -0.023350   0.025206
   11  O  1 YY   -0.000139   0.012381   0.007751   0.006243  -0.011793
   12  O  1 ZZ    0.000127  -0.021466   0.005192   0.017107  -0.013413
   13  O  1 XY   -0.000156  -0.004553  -0.020142   0.015425   0.025049
   14  O  1 XZ   -0.000114  -0.020360   0.016420  -0.007235   0.020426
   15  O  1 YZ    0.000163  -0.001135  -0.031195   0.005107   0.011720
   16  H  2  S    0.000294  -0.029984  -0.028936  -0.029984   0.295649
   17  H  2  S    0.001910  -0.048758  -0.053379  -0.048758   0.108258
   18  H  3  S    0.000295  -0.029986   0.295599  -0.029986  -0.028938
   19  H  3  S    0.001908  -0.048770   0.108362  -0.048770  -0.053374
 ...... END OF ORBITAL LOCALIZATION ......
 STEP CPU TIME =     0.00 TOTAL CPU TIME =        0.2 (    0.0 MIN)
 TOTAL WALL CLOCK TIME=        2.7 SECONDS, CPU UTILIZATION IS   7.46%
 NORMALIZED MULL. POP. FOR EACH LMO
   1   1.000 0.000 0.000
   2   1.017-0.008-0.008
   3   0.707-0.011 0.305
   4   1.017-0.008-0.008
   5   0.707 0.305-0.011

 ATOMS ARE ASSIGNED TO THE LMOS BASED ON THEIR MULLIKEN POPULATION.
 (MULLIKEN POP. THRESHOLD(VMTOL)=0.150 WAS USED)
 ORBITAL   1 BELONGS TO ATOM(S)   1
 ORBITAL   2 BELONGS TO ATOM(S)   1
 ORBITAL   3 BELONGS TO ATOM(S)   1  3
 ORBITAL   4 BELONGS TO ATOM(S)   1
 ORBITAL   5 BELONGS TO ATOM(S)   1  2
 
  LCD DIPOLES 
 
 LMO    XP        YP        ZP        MUX       MUY       MUZ     TOTAL
   1 -1.47537   1.03868   2.94722   0.00093  -0.00021   0.00074   0.00121
   2 -1.50589   1.20175   3.50285   0.15611  -0.82921  -2.82382   2.94719
   3 -1.66310   1.83642   2.37261   0.13560  -0.34166   0.28300   0.46390
   4 -0.99966   0.77543   2.74558  -2.41732   1.33802   1.02576   2.94719
   5 -2.26696   0.46151   2.74297   0.38471   0.22488   0.13057   0.46435

          -----------------------------------
           LOCALIZED ALPHA POLARIZABILITIES 
                 IN ANGSTROMS**3            
          -----------------------------------

           CORE ALPHA POLARIZABILITY TENSOR 
                      UX             UY             UZ
           UX     0.000130154    0.000009881    0.000006242
           UY     0.000009881    0.000141825   -0.000009906
           UZ     0.000006242   -0.000009906    0.000122245

           MEAN ALPHA POLARIZABILITY =     0.000131408


  LMO ALPHA POLARIZABILITY TENSOR FOR CORE OR LONE PAIR ON ATOM  1
                      UX             UY             UZ
           UX     0.088748043    0.020276554    0.011935818
           UY     0.020776014    0.119859940    0.005019301
           UZ     0.013790088    0.004204435    0.165781718

           MEAN ALPHA POLARIZABILITY =     0.124796567


  LMO ALPHA POLARIZABILITY TENSOR FOR BOND BETWEEN ATOM  1 AND ATOM  3
                      UX             UY             UZ
           UX     0.073507362   -0.035534210    0.038381036
           UY    -0.034445108    0.280818174   -0.155213279
           UZ     0.037767896   -0.155941340    0.159057921

           MEAN ALPHA POLARIZABILITY =     0.171127819


  LMO ALPHA POLARIZABILITY TENSOR FOR CORE OR LONE PAIR ON ATOM  1
                      UX             UY             UZ
           UX     0.159919376   -0.017202150   -0.011144189
           UY    -0.017701288    0.133350179   -0.007645584
           UZ    -0.012998639   -0.006830933    0.081120130

           MEAN ALPHA POLARIZABILITY =     0.124796562


  LMO ALPHA POLARIZABILITY TENSOR FOR BOND BETWEEN ATOM  1 AND ATOM  2
                      UX             UY             UZ
           UX     0.260236951    0.157150847    0.054738090
           UY     0.156061424    0.184898797    0.026134932
           UZ     0.055351411    0.026863208    0.067888207

           MEAN ALPHA POLARIZABILITY =     0.171007985


               -----------------------------------
                TOTAL ALPHA POLARIZABILITY TENSOR 
               -----------------------------------
                      UX             UY             UZ
           UX     0.582541886    0.124700923    0.093916998
           UY     0.124700923    0.719068915   -0.131714536
           UZ     0.093916998   -0.131714536    0.473970221

           MEAN ALPHA POLARIZABILITY =     0.591860341


          -----------------------------------------------
           LOCALIZED ALPHA POLARIZABILITY TENSORS FOR 
           LONE PAIRS AND BONDS PROJECTED ONTO THE Z-AXIS 
          -----------------------------------------------


  LMO ALPHA POLARIZABILITY TENSOR FOR CORE OR LONE PAIR ON ATOM  1
                      UX             UY             UZ
           UX     0.097277239    0.019877297    0.019150865
           UY     0.019877305    0.114613023   -0.012565143
           UZ     0.020895386   -0.013709009    0.162499439

           MEAN ALPHA POLARIZABILITY =     0.124796567


  LMO ALPHA POLARIZABILITY TENSOR FOR BOND BETWEEN ATOM  1 AND ATOM  3
                      UX             UY             UZ
           UX     0.068409077    0.009776780    0.007024552
           UY     0.009776780    0.050287764    0.003067281
           UZ     0.008350121    0.003646092    0.394686617

           MEAN ALPHA POLARIZABILITY =     0.171127819


  LMO ALPHA POLARIZABILITY TENSOR FOR CORE OR LONE PAIR ON ATOM  1
                      UX             UY             UZ
           UX     0.124792677   -0.010724218   -0.005839453
           UY    -0.010724226    0.087097570   -0.022148115
           UZ    -0.006371884   -0.024165118    0.162499439

           MEAN ALPHA POLARIZABILITY =     0.124796562


  LMO ALPHA POLARIZABILITY TENSOR FOR BOND BETWEEN ATOM  1 AND ATOM  2
                      UX             UY             UZ
           UX     0.061740825   -0.013122921   -0.005887627
           UY    -0.013122921    0.056956250    0.004911356
           UZ    -0.006998669    0.005838167    0.394326879

           MEAN ALPHA POLARIZABILITY =     0.171007985

 ...... DONE WITH CPHF CONTRIBUTIONS ......
 STEP CPU TIME =     0.01 TOTAL CPU TIME =        0.2 (    0.0 MIN)
 TOTAL WALL CLOCK TIME=        2.7 SECONDS, CPU UTILIZATION IS   7.78%

 Atomic populations
     I    Z      Q
     1   8.0   8.8932236
     2   1.0   0.5533669
     3   1.0   0.5534095

 Iter=  1 iFrag=      3 EFMOu=   -76.008639759

 RHF      monomer      4 corr= NONE       , L1=    19, L0=    18 ID=      3


 AO spaces for     4     0     0 n-mer: L1=    19, L0=    18

 ITER EX DEM     TOTAL ENERGY        E CHANGE  DENSITY CHANGE     ORB. GRAD
   1  0  0      -75.7681499645   -75.7681499645   0.282638402   0.000000000
          ---------------START SECOND ORDER SCF---------------
   2  1  0      -75.9963746893    -0.2282247248   0.058499245   0.050279810
   3  2  0      -76.0076982446    -0.0113235553   0.019543003   0.012098455
   4  3  0      -76.0087305066    -0.0010322620   0.002292560   0.001750135
   5  4  0      -76.0087501228    -0.0000196162   0.001596456   0.000754160
   6  5  0      -76.0087539226    -0.0000037998   0.000356709   0.000350045
   7  6  0      -76.0087541531    -0.0000002305   0.000051730   0.000050468
   8  7  0      -76.0087541595    -0.0000000064   0.000013061   0.000008364
   9  8  0      -76.0087541599    -0.0000000004   0.000003880   0.000003446
  10  9  0      -76.0087541600    -0.0000000000   0.000000628   0.000000357
  11 10  0      -76.0087541600    -0.0000000000   0.000000131   0.000000057
  12 11  0      -76.0087541600     0.0000000000   0.000000000   0.000000006

          -----------------
          DENSITY CONVERGED
          -----------------
     TIME TO FORM FOCK OPERATORS=       0.0 SECONDS (       0.0 SEC/ITER)
     TIME TO SOLVE SCF EQUATIONS=       0.0 SECONDS (       0.0 SEC/ITER)

 FINAL RHF ENERGY IS      -76.0087541600 AFTER  12 ITERATIONS
 ...... END OF RHF CALCULATION ......
 STEP CPU TIME =     0.01 TOTAL CPU TIME =        0.2 (    0.0 MIN)
 TOTAL WALL CLOCK TIME=        2.8 SECONDS, CPU UTILIZATION IS   7.80%

     --------------------------------------------------
     GENERATING EFMO PARAMETERS FOR FMO MONOMER #    4
     --------------------------------------------------

 PROCESSING $STONE INPUT...
 THE NUMBER OF "BOUNDARY" CORE MOS IS  0
 THE NUMBER OF MOS WITH ZERO OCCUPATION NUMBER IS  0
 TOTAL ELECTRON CHARGE =    -10.0000000000

          ---------------------------------------------
          DISTRIBUTED MULTIPOLAR ANALYSIS (A. J. STONE)
          ---------------------------------------------

 NET CHARGES AT POINTS                    COORDINATES
 ---------------------                    -----------
    #   NAME        CHARGE          X           Y           Z
    1   ZO          8.00000     -4.44474    -4.13390     1.36399
    2   ZH          1.00000     -6.04087    -3.82985     0.55104
    3   ZH          1.00000     -3.57102    -5.18438     0.16209
    4   O          -8.81817     -4.44474    -4.13390     1.36399
    5   H          -0.59090     -6.04087    -3.82985     0.55104
    6   H          -0.59092     -3.57102    -5.18438     0.16209

 THE DISTRIBUTED MULTIPOLE ANALYSIS IS FOR THE -ELECTRONIC- PART ONLY
 OF THE FOLLOWING MOMENTS.  ALL QUANTITIES ARE IN ATOMIC UNITS


 FIRST MOMENTS AT POINTS
 -----------------------
 NAME               X             Y             Z
 O              0.03032       0.03220       0.08618
 H             -0.04124       0.00868      -0.01946
 H              0.02373      -0.02700      -0.02979

 SECOND MOMENTS AT POINTS
 ------------------------
 NAME           XX         YY         ZZ         XY         XZ         YZ
 O          -4.48854   -4.68980   -4.64156   -0.13826    0.00853    0.07919
 H          -0.27793   -0.29393   -0.28845   -0.00294    0.00916   -0.00081
 H          -0.29003   -0.28791   -0.28392   -0.00566   -0.00598    0.00889

 THIRD MOMENTS AT POINTS
 -----------------------
 NAME           XXX        YYY        ZZZ        XXY        XXZ        XYY
                YYZ        XZZ        YZZ        XYZ
 O           0.28820    0.12229    0.24868    0.01366    0.25555   -0.05162
             0.13575   -0.01261    0.10368   -0.11580
 H          -0.02883    0.01045   -0.02207   -0.00100    0.00404   -0.01676
            -0.00844   -0.01052    0.00237   -0.00199
 H           0.02567   -0.02819   -0.02779   -0.00690   -0.00812    0.00441
            -0.00493    0.00251   -0.00195   -0.00641
 STEP CPU TIME =     0.00 TOTAL CPU TIME =        0.2 (    0.0 MIN)
 TOTAL WALL CLOCK TIME=        2.8 SECONDS, CPU UTILIZATION IS   7.77%

          -----------------------------
          LOCALIZATION INPUT PARAMETERS
          -----------------------------
           LOCAL=BOYS          NOUTA=       1
          PRTLOC=       F      NOUTB=       0
          MAXLOC=    1000     CVGLOC=1.00E-07
           FCORE=       T     SYMLOC=       F
          MOIDON=       F     EDCOMP=       F
          DIPDCM=       F      NPROT=       0
          QADDCM=       F     DEPRNT=       F
          POLNUM=       F     ORIENT=       F
          POLDYN=       F      VMTOL=1.50E-01
          NPRDTL=       2
          MOOUTA =      1

          -------------------------
          BOYS ORBITAL LOCALIZATION
          -------------------------
          S.F.BOYS, IN "QUANTUM THEORY OF ATOMS, MOLECULES, AND SOLIDS"
          P.O.LOWDIN, ED. ACADEMIC PRESS, NY, 1966 PP253-266.

          THIS LOCALIZATION REQUIRES      1107 WORDS OF MEMORY.
          THIS LOCALIZATION HAS    5 ORBITALS, OF WHICH   1 ARE FROZEN.

          THE INITIAL LOCALIZATION SUM IS   1016.117136 DEBYE**2
          BOYS ITERATION  10 ORBITAL CHANGE=    3.7139627619E-08
          LOCALIZATION CONVERGED IN  15 ITERATIONS
            THE FINAL LOCALIZATION SUM IS   1031.449663 DEBYE**2

          THE BOYS LOCALIZED ORBITALS ARE

                      1          2          3          4          5

    1  O  1  S    0.995795   0.095005  -0.094909  -0.127981  -0.127981
    2  O  1  S    0.021950  -0.200760   0.200469   0.290761   0.290761
    3  O  1  X   -0.000527   0.400456   0.222745   0.261320  -0.080854
    4  O  1  Y   -0.000540  -0.079365  -0.262109   0.461500  -0.276122
    5  O  1  Z   -0.001462   0.198219  -0.295796   0.052677   0.448625
    6  O  1  S   -0.008099  -0.170040   0.170286   0.365448   0.365448
    7  O  1  X    0.000593   0.253121   0.126617   0.204388  -0.069335
    8  O  1  Y    0.000608  -0.038873  -0.169364   0.364432  -0.225630
    9  O  1  Z    0.001646   0.146327  -0.206092   0.029275   0.346015
   10  O  1 XX   -0.000141  -0.017604  -0.017567   0.002352   0.012504
   11  O  1 YY    0.000122   0.020626  -0.000810  -0.006107   0.016258
   12  O  1 ZZ    0.000019  -0.003021   0.018378   0.003754  -0.028762
   13  O  1 XY    0.000205   0.000463  -0.010193  -0.014293   0.004331
   14  O  1 XZ   -0.000030  -0.036165  -0.017062  -0.013342  -0.003900
   15  O  1 YZ   -0.000142   0.002816   0.031391  -0.021968   0.006074
   16  H  2  S    0.000287  -0.295958  -0.029097  -0.029825  -0.029825
   17  H  2  S    0.001918  -0.107317  -0.053180  -0.048552  -0.048552
   18  H  3  S    0.000292   0.029108   0.295695  -0.029835  -0.029835
   19  H  3  S    0.001909   0.053154   0.107867  -0.048612  -0.048612
 ...... END OF ORBITAL LOCALIZATION ......
 STEP CPU TIME =     0.00 TOTAL CPU TIME =        0.2 (    0.0 MIN)
 TOTAL WALL CLOCK TIME=        2.8 SECONDS, CPU UTILIZATION IS   7.75%
 NORMALIZED MULL. POP. FOR EACH LMO
   1   1.000 0.000 0.000
   2   0.707 0.304-0.011
   3   0.707-0.011 0.304
   4   1.017-0.008-0.008
   5   1.017-0.008-0.008

 ATOMS ARE ASSIGNED TO THE LMOS BASED ON THEIR MULLIKEN POPULATION.
 (MULLIKEN POP. THRESHOLD(VMTOL)=0.150 WAS USED)
 ORBITAL   1 BELONGS TO ATOM(S)   1
 ORBITAL   2 BELONGS TO ATOM(S)   1  2
 ORBITAL   3 BELONGS TO ATOM(S)   1  3
 ORBITAL   4 BELONGS TO ATOM(S)   1
 ORBITAL   5 BELONGS TO ATOM(S)   1
 
  LCD DIPOLES 
 
 LMO    XP        YP        ZP        MUX       MUY       MUZ     TOTAL
   1 -4.44481  -4.13398   1.36378   0.00039   0.00040   0.00107   0.00121
   2 -5.31877  -3.97422   0.90612   0.38616  -0.03890   0.26125   0.46785
   3 -3.97523  -4.71086   0.69490  -0.16595   0.26292   0.34638   0.46545
   4 -4.16225  -3.62917   1.40071  -1.43601  -2.56582  -0.18669   2.94626
   5 -4.54245  -4.44876   1.84066   0.49674   1.60059  -2.42318   2.94626

          -----------------------------------
           LOCALIZED ALPHA POLARIZABILITIES 
                 IN ANGSTROMS**3            
          -----------------------------------

           CORE ALPHA POLARIZABILITY TENSOR 
                      UX             UY             UZ
           UX     0.000141981   -0.000012901    0.000001436
           UY    -0.000012901    0.000122944    0.000008291
           UZ     0.000001436    0.000008291    0.000129196

           MEAN ALPHA POLARIZABILITY =     0.000131373


  LMO ALPHA POLARIZABILITY TENSOR FOR BOND BETWEEN ATOM  1 AND ATOM  2
                      UX             UY             UZ
           UX     0.319234274   -0.059917113    0.124548978
           UY    -0.059267231    0.065379059   -0.015021874
           UZ     0.125759662   -0.015583496    0.125598615

           MEAN ALPHA POLARIZABILITY =     0.170070649


  LMO ALPHA POLARIZABILITY TENSOR FOR BOND BETWEEN ATOM  1 AND ATOM  3
                      UX             UY             UZ
           UX     0.149109386   -0.100773821   -0.098627329
           UY    -0.101422776    0.162208301    0.128840970
           UZ    -0.099836284    0.129401790    0.200787605

           MEAN ALPHA POLARIZABILITY =     0.170701764


  LMO ALPHA POLARIZABILITY TENSOR FOR CORE OR LONE PAIR ON ATOM  1
                      UX             UY             UZ
           UX     0.137340385    0.015718552    0.009239916
           UY     0.015998797    0.148472819    0.028314201
           UZ     0.008254425    0.026516874    0.087973700

           MEAN ALPHA POLARIZABILITY =     0.124595634


  LMO ALPHA POLARIZABILITY TENSOR FOR CORE OR LONE PAIR ON ATOM  1
                      UX             UY             UZ
           UX     0.115118564   -0.019381061   -0.009780369
           UY    -0.019662233    0.099199568   -0.026853907
           UZ    -0.008796608   -0.025055778    0.159468756

           MEAN ALPHA POLARIZABILITY =     0.124595630


               -----------------------------------
                TOTAL ALPHA POLARIZABILITY TENSOR 
               -----------------------------------
                      UX             UY             UZ
           UX     0.720944589   -0.164366344    0.025382632
           UY    -0.164366344    0.475382691    0.115287681
           UZ     0.025382632    0.115287681    0.573957871

           MEAN ALPHA POLARIZABILITY =     0.590095050


          -----------------------------------------------
           LOCALIZED ALPHA POLARIZABILITY TENSORS FOR 
           LONE PAIRS AND BONDS PROJECTED ONTO THE Z-AXIS 
          -----------------------------------------------


  LMO ALPHA POLARIZABILITY TENSOR FOR BOND BETWEEN ATOM  1 AND ATOM  2
                      UX             UY             UZ
           UX     0.052359572    0.011418206    0.003713838
           UY     0.011418206    0.066287700    0.006615187
           UZ     0.004440523    0.007909580    0.391564675

           MEAN ALPHA POLARIZABILITY =     0.170070649


  LMO ALPHA POLARIZABILITY TENSOR FOR BOND BETWEEN ATOM  1 AND ATOM  3
                      UX             UY             UZ
           UX     0.055059269   -0.012623907   -0.004416748
           UY    -0.012623907    0.063588169    0.006153957
           UZ    -0.005281048    0.007358207    0.393457855

           MEAN ALPHA POLARIZABILITY =     0.170701764


  LMO ALPHA POLARIZABILITY TENSOR FOR CORE OR LONE PAIR ON ATOM  1
                      UX             UY             UZ
           UX     0.126478451    0.005969591    0.003036828
           UY     0.005969568    0.084694172   -0.022431586
           UZ     0.003317638   -0.024481283    0.162614280

           MEAN ALPHA POLARIZABILITY =     0.124595634


  LMO ALPHA POLARIZABILITY TENSOR FOR CORE OR LONE PAIR ON ATOM  1
                      UX             UY             UZ
           UX     0.124772480   -0.010198436   -0.005373850
           UY    -0.010198414    0.086400130   -0.021989087
           UZ    -0.005868188   -0.023998003    0.162614278

           MEAN ALPHA POLARIZABILITY =     0.124595630

 ...... DONE WITH CPHF CONTRIBUTIONS ......
 STEP CPU TIME =     0.00 TOTAL CPU TIME =        0.2 (    0.0 MIN)
 TOTAL WALL CLOCK TIME=        2.9 SECONDS, CPU UTILIZATION IS   7.69%

 Atomic populations
     I    Z      Q
     1   8.0   8.8938844
     2   1.0   0.5529480
     3   1.0   0.5531676

 Iter=  1 iFrag=      4 EFMOu=   -76.008754160

 RHF      monomer      5 corr= NONE       , L1=    19, L0=    18 ID=      4


 AO spaces for     5     0     0 n-mer: L1=    19, L0=    18

 ITER EX DEM     TOTAL ENERGY        E CHANGE  DENSITY CHANGE     ORB. GRAD
   1  0  0      -75.7684229729   -75.7684229729   0.282458668   0.000000000
          ---------------START SECOND ORDER SCF---------------
   2  1  0      -75.9963626188    -0.2279396459   0.058638585   0.050257868
   3  2  0      -76.0076982119    -0.0113355930   0.019638748   0.012129767
   4  3  0      -76.0087350749    -0.0010368630   0.002536225   0.001704365
   5  4  0      -76.0087547712    -0.0000196963   0.001229333   0.000740968
   6  5  0      -76.0087585466    -0.0000037754   0.000383527   0.000351045
   7  6  0      -76.0087587732    -0.0000002266   0.000061326   0.000058349
   8  7  0      -76.0087587817    -0.0000000085   0.000012841   0.000008539
   9  8  0      -76.0087587821    -0.0000000004   0.000005068   0.000003876
  10  9  0      -76.0087587821    -0.0000000000   0.000000573   0.000000333
  11 10  0      -76.0087587821    -0.0000000000   0.000000135   0.000000057
  12 11  0      -76.0087587821    -0.0000000000   0.000000000   0.000000005

          -----------------
          DENSITY CONVERGED
          -----------------
     TIME TO FORM FOCK OPERATORS=       0.0 SECONDS (       0.0 SEC/ITER)
     TIME TO SOLVE SCF EQUATIONS=       0.0 SECONDS (       0.0 SEC/ITER)

 FINAL RHF ENERGY IS      -76.0087587821 AFTER  12 ITERATIONS
 ...... END OF RHF CALCULATION ......
 STEP CPU TIME =     0.02 TOTAL CPU TIME =        0.2 (    0.0 MIN)
 TOTAL WALL CLOCK TIME=        3.0 SECONDS, CPU UTILIZATION IS   8.00%

     --------------------------------------------------
     GENERATING EFMO PARAMETERS FOR FMO MONOMER #    5
     --------------------------------------------------

 PROCESSING $STONE INPUT...
 THE NUMBER OF "BOUNDARY" CORE MOS IS  0
 THE NUMBER OF MOS WITH ZERO OCCUPATION NUMBER IS  0
 TOTAL ELECTRON CHARGE =    -10.0000000000

          ---------------------------------------------
          DISTRIBUTED MULTIPOLAR ANALYSIS (A. J. STONE)
          ---------------------------------------------

 NET CHARGES AT POINTS                    COORDINATES
 ---------------------                    -----------
    #   NAME        CHARGE          X           Y           Z
    1   ZO          8.00000     -5.26845     2.01284    -1.51368
    2   ZH          1.00000     -6.35530     0.70354    -2.15133
    3   ZH          1.00000     -3.77082     1.83908    -2.53466
    4   O          -8.81857     -5.26845     2.01284    -1.51368
    5   H          -0.59070     -6.35530     0.70354    -2.15133
    6   H          -0.59073     -3.77082     1.83908    -2.53466

 THE DISTRIBUTED MULTIPOLE ANALYSIS IS FOR THE -ELECTRONIC- PART ONLY
 OF THE FOLLOWING MOMENTS.  ALL QUANTITIES ARE IN ATOMIC UNITS


 FIRST MOMENTS AT POINTS
 -----------------------
 NAME               X             Y             Z
 O             -0.01828       0.06300       0.07093
 H             -0.02909      -0.03300      -0.01511
 H              0.03929      -0.00306      -0.02534

 SECOND MOMENTS AT POINTS
 ------------------------
 NAME           XX         YY         ZZ         XY         XZ         YZ
 O          -4.47720   -4.65564   -4.69039    0.11670   -0.07042    0.06941
 H          -0.28691   -0.28240   -0.29059    0.00892    0.00412    0.00672
 H          -0.28084   -0.29390   -0.28715   -0.00198   -0.01012    0.00245

 THIRD MOMENTS AT POINTS
 -----------------------
 NAME           XXX        YYY        ZZZ        XXY        XXZ        XYY
                YYZ        XZZ        YZZ        XYZ
 O          -0.17987    0.23319    0.17085    0.16933    0.25605    0.13126
             0.10270   -0.08925    0.06704    0.05098
 H          -0.02920   -0.02903   -0.01831   -0.00534   -0.00267   -0.00125
             0.00055   -0.00943   -0.01058    0.00556
 H           0.03094   -0.00475   -0.02646    0.00074    0.00247    0.01618
            -0.01080    0.00719    0.00003   -0.00211
 STEP CPU TIME =     0.00 TOTAL CPU TIME =        0.2 (    0.0 MIN)
 TOTAL WALL CLOCK TIME=        3.0 SECONDS, CPU UTILIZATION IS   7.97%

          -----------------------------
          LOCALIZATION INPUT PARAMETERS
          -----------------------------
           LOCAL=BOYS          NOUTA=       1
          PRTLOC=       F      NOUTB=       0
          MAXLOC=    1000     CVGLOC=1.00E-07
           FCORE=       T     SYMLOC=       F
          MOIDON=       F     EDCOMP=       F
          DIPDCM=       F      NPROT=       0
          QADDCM=       F     DEPRNT=       F
          POLNUM=       F     ORIENT=       F
          POLDYN=       F      VMTOL=1.50E-01
          NPRDTL=       2
          MOOUTA =      1

          -------------------------
          BOYS ORBITAL LOCALIZATION
          -------------------------
          S.F.BOYS, IN "QUANTUM THEORY OF ATOMS, MOLECULES, AND SOLIDS"
          P.O.LOWDIN, ED. ACADEMIC PRESS, NY, 1966 PP253-266.

          THIS LOCALIZATION REQUIRES      1107 WORDS OF MEMORY.
          THIS LOCALIZATION HAS    5 ORBITALS, OF WHICH   1 ARE FROZEN.

          THE INITIAL LOCALIZATION SUM IS    872.732553 DEBYE**2
          BOYS ITERATION  10 ORBITAL CHANGE=    2.7772253289E-05
          BOYS ITERATION  20 ORBITAL CHANGE=    4.5550666296E-09
          LOCALIZATION CONVERGED IN  22 ITERATIONS
            THE FINAL LOCALIZATION SUM IS    888.075700 DEBYE**2

          THE BOYS LOCALIZED ORBITALS ARE

                      1          2          3          4          5

    1  O  1  S    0.995795  -0.127938   0.094934   0.127938   0.095057
    2  O  1  S    0.021949   0.290648  -0.200513  -0.290648  -0.200885
    3  O  1  X    0.000294   0.121233  -0.375277   0.222789   0.275094
    4  O  1  Y   -0.001078  -0.104487   0.039191  -0.474871   0.325506
    5  O  1  Z   -0.001204   0.508437   0.251660   0.094794   0.155738
    6  O  1  S   -0.008096   0.365316  -0.170530  -0.365316  -0.170215
    7  O  1  X   -0.000332   0.099550  -0.234185   0.175672   0.162321
    8  O  1  Y    0.001213  -0.093065   0.042978  -0.370428   0.217225
    9  O  1  Z    0.001354   0.396196   0.174833   0.086397   0.116057
   10  O  1 XX   -0.000157   0.012262  -0.009181  -0.006599   0.011460
   11  O  1 YY    0.000060   0.014432   0.016507   0.020665  -0.016575
   12  O  1 ZZ    0.000097  -0.026694  -0.007326  -0.014066   0.005115
   13  O  1 XY   -0.000169  -0.003673   0.015539  -0.013866  -0.022667
   14  O  1 XZ    0.000119  -0.000713   0.033800  -0.006974  -0.016482
   15  O  1 YZ   -0.000137  -0.013097  -0.012162   0.014601  -0.027069
   16  H  2  S    0.000286  -0.029749   0.029260   0.029749  -0.295900
   17  H  2  S    0.001918  -0.048561   0.053028   0.048561  -0.107195
   18  H  3  S    0.000292  -0.029763  -0.295563   0.029763   0.029273
   19  H  3  S    0.001907  -0.048638  -0.107899   0.048638   0.052996
 ...... END OF ORBITAL LOCALIZATION ......
 STEP CPU TIME =     0.00 TOTAL CPU TIME =        0.2 (    0.0 MIN)
[...]
     6   13.547616    5.810765   -9.679190    7.736851    0.129252      6.054577
     7   13.547571    5.806947   -9.677259    7.740624    0.129189      6.049211
     8   13.546587    5.796791   -9.671689    7.749796    0.129036      6.035098
     9   13.548938    5.807082   -9.678010    7.741856    0.129168      6.049188
    10   13.542447    5.805055   -9.673751    7.737393    0.129243      6.047351
    11   13.543531    5.810334   -9.676932    7.733197    0.129313      6.054612
    12   13.550845    5.799610   -9.675228    7.751235    0.129012      6.038395
    13   13.545397    5.804068   -9.674732    7.741330    0.129177      6.045502
    14   13.543683    5.802362   -9.673023    7.741321    0.129177      6.043372
    15   13.539789    5.812229   -9.676009    7.727559    0.129407      6.057873
    16   13.549988    5.798450   -9.674219    7.751538    0.129007      6.036899

 Total energy of the molecule: Euncorr(1)=    -1216.140325171

 Two-body FMO properties.
 ========================

 DL: D=C dynamically correlated (MP2,CI), D=N not dynamically correlated
 (RHF,DFT). D=S separated dimer: semiclassical interaction (ES), D=M MCSCF.
 L stands for layer, Z is the monomer charge product, R is the interfragment
 distance relative to van-der-Waals radii (-1.00 is printed if distances are
 not computed). dDIJ*VIJ is the explicit embedded charge transfer energy.
 Q(I->J) is the charge transfer amount, printed as zero if not available.
 Positive values correspond to I in IJ having extra negative charge.

    I    J DL  Z    R   Q(I->J)        E"        E"IJ-E"I-E"J   dDIJ*VIJ      Gsol     tot
 ------------------------------------------------------------------------------------------
    2    1 S1  0   0.92  0.0000   -152.021364724  -0.00373435  0.00000000    0.000   -2.343
    3    1 S1  0   1.52  0.0000   -152.018872448  -0.00148672  0.00000000    0.000   -0.933
    3    2 S1  0   1.71  0.0000   -152.018578964  -0.00105479  0.00000000    0.000   -0.662
    4    1 S1  0   1.35  0.0000   -152.017254800   0.00024533  0.00000000    0.000    0.154
    4    2 S1  0   0.95  0.0000   -152.022488599  -0.00485003  0.00000000    0.000   -3.043
    4    3 S1  0   0.93  0.0000   -152.021298580  -0.00390466  0.00000000    0.000   -2.450
    5    1 S1  0   0.93  0.0000   -152.023590551  -0.00608580  0.00000000    0.000   -3.819
    5    2 S1  0   0.94  0.0000   -152.021185084  -0.00354189  0.00000000    0.000   -2.223
    5    3 S1  0   1.00  0.0000   -152.021969072  -0.00457053  0.00000000    0.000   -2.868
    5    4 S1  0   1.17  0.0000   -152.014632152   0.00288079  0.00000000    0.000    1.808
    6    1 S1  0   2.56  0.0000   -152.017943959  -0.00036467  0.00000000    0.000   -0.229
    6    2 S1  0   2.83  0.0000   -152.018028370  -0.00031063  0.00000000    0.000   -0.195
    6    3 S1  0   0.99  0.0000   -152.018938703  -0.00146562  0.00000000    0.000   -0.920
    6    4 S1  0   2.05  0.0000   -152.018096310  -0.00050883  0.00000000    0.000   -0.319
    6    5 S1  0   1.82  0.0000   -152.018834467  -0.00124236  0.00000000    0.000   -0.780
    7    1 S1  0   1.98  0.0000   -152.018238467  -0.00069718  0.00000000    0.000   -0.437
    7    2 S1  0   2.16  0.0000   -152.018026204  -0.00034647  0.00000000    0.000   -0.217
    7    3 S1  0   0.99  0.0000   -152.016176440   0.00125864  0.00000000    0.000    0.790
    7    4 S1  0   2.01  0.0000   -152.017167656   0.00038183  0.00000000    0.000    0.240
    7    5 S1  0   0.93  0.0000   -152.022319308  -0.00476520  0.00000000    0.000   -2.990
    7    6 S1  0   0.93  0.0000   -152.023637658  -0.00600901  0.00000000    0.000   -3.771
    8    1 S1  0   1.13  0.0000   -152.021275853  -0.00384158  0.00000000    0.000   -2.411
    8    2 S1  0   1.97  0.0000   -152.018068969  -0.00049625  0.00000000    0.000   -0.311
    8    3 S1  0   0.97  0.0000   -152.020943106  -0.00361504  0.00000000    0.000   -2.268
    8    4 S1  0   1.61  0.0000   -152.018827411  -0.00138495  0.00000000    0.000   -0.869
    8    5 S1  0   1.40  0.0000   -152.017621537  -0.00017445  0.00000000    0.000   -0.109
    8    6 S1  0   1.97  0.0000   -152.017007411   0.00051422  0.00000000    0.000    0.323
    8    7 S1  0   1.85  0.0000   -152.017408301   0.00007533  0.00000000    0.000    0.047
    9    1 S1  0   0.99  0.0000   -152.019648334  -0.00211439  0.00000000    0.000   -1.327
    9    2 S1  0   1.92  0.0000   -152.018193007  -0.00052062  0.00000000    0.000   -0.327
    9    3 S1  0   2.08  0.0000   -152.017734358  -0.00030662  0.00000000    0.000   -0.192
    9    4 S1  0   1.96  0.0000   -152.018242871  -0.00070073  0.00000000    0.000   -0.440
    9    5 S1  0   2.12  0.0000   -152.017737188  -0.00019043  0.00000000    0.000   -0.119
    9    6 S1  0   3.14  0.0000   -152.017717831  -0.00009653  0.00000000    0.000   -0.061
    9    7 S1  0   2.94  0.0000   -152.017543340   0.00003996  0.00000000    0.000    0.025
    9    8 S1  0   0.93  0.0000   -152.023238126  -0.00576184  0.00000000    0.000   -3.616
   10    1 S1  0   0.95  0.0000   -152.018767687  -0.00121942  0.00000000    0.000   -0.765
   10    2 S1  0   1.35  0.0000   -152.018012071  -0.00032536  0.00000000    0.000   -0.204
   10    3 S1  0   1.77  0.0000   -152.018392339  -0.00095028  0.00000000    0.000   -0.596
   10    4 S1  0   0.93  0.0000   -152.023412831  -0.00585637  0.00000000    0.000   -3.675
   10    5 S1  0   1.91  0.0000   -152.018279056  -0.00071797  0.00000000    0.000   -0.451
   10    6 S1  0   2.88  0.0000   -152.017853733  -0.00021811  0.00000000    0.000   -0.137
   10    7 S1  0   2.77  0.0000   -152.017824170  -0.00022655  0.00000000    0.000   -0.142
   10    8 S1  0   1.27  0.0000   -152.017542741  -0.00005214  0.00000000    0.000   -0.033
   10    9 S1  0   0.93  0.0000   -152.021879420  -0.00428914  0.00000000    0.000   -2.691
   11    1 S1  0   1.67  0.0000   -152.018812933  -0.00122692  0.00000000    0.000   -0.770
   11    2 S1  0   2.02  0.0000   -152.018384539  -0.00066008  0.00000000    0.000   -0.414
   11    3 S1  0   1.03  0.0000   -152.016461942   0.00101787  0.00000000    0.000    0.639
   11    4 S1  0   0.95  0.0000   -152.023491585  -0.00589738  0.00000000    0.000   -3.701
   11    5 S1  0   1.87  0.0000   -152.018190816  -0.00059198  0.00000000    0.000   -0.371
   11    6 S1  0   1.94  0.0000   -152.017129074   0.00054430  0.00000000    0.000    0.342
   11    7 S1  0   2.32  0.0000   -152.017769086  -0.00013371  0.00000000    0.000   -0.084
   11    8 S1  0   0.92  0.0000   -152.021907443  -0.00437909  0.00000000    0.000   -2.748
   11    9 S1  0   1.73  0.0000   -152.017669403  -0.00004137  0.00000000    0.000   -0.026
   11   10 S1  0   0.95  0.0000   -152.023533230  -0.00589088  0.00000000    0.000   -3.697
   12    1 S1  0   1.96  0.0000   -152.017559740  -0.00012306  0.00000000    0.000   -0.077
   12    2 S1  0   3.03  0.0000   -152.017665425  -0.00009030  0.00000000    0.000   -0.057
   12    3 S1  0   1.83  0.0000   -152.018394349  -0.00106388  0.00000000    0.000   -0.668
   12    4 S1  0   2.70  0.0000   -152.017686851  -0.00024198  0.00000000    0.000   -0.152
   12    5 S1  0   2.29  0.0000   -152.017651088  -0.00020159  0.00000000    0.000   -0.127
   12    6 S1  0   2.06  0.0000   -152.018087987  -0.00056395  0.00000000    0.000   -0.354
   12    7 S1  0   2.14  0.0000   -152.017957364  -0.00047133  0.00000000    0.000   -0.296
   12    8 S1  0   0.93  0.0000   -152.021669439  -0.00429042  0.00000000    0.000   -2.692
   12    9 S1  0   1.58  0.0000   -152.017258993   0.00021970  0.00000000    0.000    0.138
   12   10 S1  0   2.39  0.0000   -152.017235846   0.00025717  0.00000000    0.000    0.161
   12   11 S1  0   2.03  0.0000   -152.018117406  -0.00058664  0.00000000    0.000   -0.368
   13    1 S1  0   0.93  0.0000   -152.023829297  -0.00630653  0.00000000    0.000   -3.957
   13    2 S1  0   2.18  0.0000   -152.018238499  -0.00057729  0.00000000    0.000   -0.362
   13    3 S1  0   1.97  0.0000   -152.017690647  -0.00027409  0.00000000    0.000   -0.172
   13    4 S1  0   2.44  0.0000   -152.017882261  -0.00035130  0.00000000    0.000   -0.220
   13    5 S1  0   1.81  0.0000   -152.018343940  -0.00080836  0.00000000    0.000   -0.507
   13    6 S1  0   2.74  0.0000   -152.017775206  -0.00016508  0.00000000    0.000   -0.104
   13    7 S1  0   2.29  0.0000   -152.017616630  -0.00004451  0.00000000    0.000   -0.028
   13    8 S1  0   1.01  0.0000   -152.019576733  -0.00211163  0.00000000    0.000   -1.325
   13    9 S1  0   0.97  0.0000   -152.021151819  -0.00358704  0.00000000    0.000   -2.251
   13   10 S1  0   1.94  0.0000   -152.017652075  -0.00007298  0.00000000    0.000   -0.046
   13   11 S1  0   2.24  0.0000   -152.017548022   0.00006882  0.00000000    0.000    0.043
   13   12 S1  0   1.03  0.0000   -152.020238108  -0.00277060  0.00000000    0.000   -1.739
   14    1 S1  0   1.33  0.0000   -152.015250073   0.00226302  0.00000000    0.000    1.420
   14    2 S1  0   2.13  0.0000   -152.017372563   0.00027898  0.00000000    0.000    0.175
   14    3 S1  0   0.97  0.0000   -152.022007736  -0.00460085  0.00000000    0.000   -2.887
   14    4 S1  0   2.03  0.0000   -152.017153626   0.00036766  0.00000000    0.000    0.231
   14    5 S1  0   1.12  0.0000   -152.017798232  -0.00027232  0.00000000    0.000   -0.171
   14    6 S1  0   1.64  0.0000   -152.019008973  -0.00140852  0.00000000    0.000   -0.884
   14    7 S1  0   0.95  0.0000   -152.022622127  -0.00505967  0.00000000    0.000   -3.175
   14    8 S1  0   1.02  0.0000   -152.021935903  -0.00448047  0.00000000    0.000   -2.812
   14    9 S1  0   1.92  0.0000   -152.017101078   0.00045403  0.00000000    0.000    0.285
   14   10 S1  0   2.21  0.0000   -152.017081456   0.00048797  0.00000000    0.000    0.306
   14   11 S1  0   2.06  0.0000   -152.017939354  -0.00033218  0.00000000    0.000   -0.208
   14   12 S1  0   1.02  0.0000   -152.020136467  -0.00267862  0.00000000    0.000   -1.681
   14   13 S1  0   1.15  0.0000   -152.015093533   0.00245039  0.00000000    0.000    1.538
   15    1 S1  0   1.83  0.0000   -152.018109715  -0.00048742  0.00000000    0.000   -0.306
   15    2 S1  0   2.98  0.0000   -152.017870661  -0.00010992  0.00000000    0.000   -0.069
   15    3 S1  0   2.23  0.0000   -152.017928671  -0.00041258  0.00000000    0.000   -0.259
   15    4 S1  0   3.08  0.0000   -152.017678800  -0.00004831  0.00000000    0.000   -0.030
   15    5 S1  0   2.17  0.0000   -152.018007380  -0.00037227  0.00000000    0.000   -0.234
   15    6 S1  0   2.60  0.0000   -152.017982206  -0.00027255  0.00000000    0.000   -0.171
   15    7 S1  0   2.01  0.0000   -152.018414157  -0.00074250  0.00000000    0.000   -0.466
   15    8 S1  0   1.80  0.0000   -152.017761300  -0.00019666  0.00000000    0.000   -0.123
   15    9 S1  0   2.18  0.0000   -152.018008345  -0.00034403  0.00000000    0.000   -0.216
   15   10 S1  0   2.91  0.0000   -152.017556588   0.00012204  0.00000000    0.000    0.077
   15   11 S1  0   2.93  0.0000   -152.017701567   0.00001481  0.00000000    0.000    0.009
   15   12 S1  0   0.91  0.0000   -152.022097935  -0.00453089  0.00000000    0.000   -2.843
   15   13 S1  0   0.94  0.0000   -152.021876219  -0.00422309  0.00000000    0.000   -2.650
   15   14 S1  0   0.94  0.0000   -152.022310669  -0.00466721  0.00000000    0.000   -2.929
   16    1 S1  0   2.17  0.0000   -152.017797448  -0.00036764  0.00000000    0.000   -0.231
   16    2 S1  0   2.87  0.0000   -152.017797269  -0.00022902  0.00000000    0.000   -0.144
   16    3 S1  0   0.95  0.0000   -152.022632126  -0.00530853  0.00000000    0.000   -3.331
   16    4 S1  0   2.13  0.0000   -152.018079213  -0.00064121  0.00000000    0.000   -0.402
   16    5 S1  0   2.00  0.0000   -152.017999927  -0.00055731  0.00000000    0.000   -0.350
   16    6 S1  0   0.93  0.0000   -152.022452840  -0.00493568  0.00000000    0.000   -3.097
   16    7 S1  0   1.61  0.0000   -152.018846066  -0.00136690  0.00000000    0.000   -0.858
   16    8 S1  0   1.21  0.0000   -152.014614896   0.00275725  0.00000000    0.000    1.730
   16    9 S1  0   2.28  0.0000   -152.017926283  -0.00045446  0.00000000    0.000   -0.285
   16   10 S1  0   2.43  0.0000   -152.017616152  -0.00013001  0.00000000    0.000   -0.082
   16   11 S1  0   1.61  0.0000   -152.017017253   0.00050664  0.00000000    0.000    0.318
   16   12 S1  0   0.92  0.0000   -152.022340501  -0.00496595  0.00000000    0.000   -3.116
   16   13 S1  0   1.83  0.0000   -152.018439288  -0.00097865  0.00000000    0.000   -0.614
   16   14 S1  0   0.97  0.0000   -152.023050577  -0.00559961  0.00000000    0.000   -3.514
   16   15 S1  0   1.82  0.0000   -152.017952860  -0.00039269  0.00000000    0.000   -0.246

 Total energy of the molecule: Euncorr(2)=    -1216.322678145

 Total energy of the molecule: Etotpol(2)=       -0.016870524

 Charge transfer for each fragment:

  IFG QFG  DeltaQ     and its contributions from JFG, Q(JFG->IFG).
 ------------------------------------------------------------------------------
    1  0   0.0000 =    0->  0.0000    0->  0.0000    0->  0.0000    0->  0.0000
    2  0   0.0000 =    0->  0.0000    0->  0.0000    0->  0.0000    0->  0.0000
    3  0   0.0000 =    0->  0.0000    0->  0.0000    0->  0.0000    0->  0.0000
    4  0   0.0000 =    0->  0.0000    0->  0.0000    0->  0.0000    0->  0.0000
    5  0   0.0000 =    0->  0.0000    0->  0.0000    0->  0.0000    0->  0.0000
    6  0   0.0000 =    0->  0.0000    0->  0.0000    0->  0.0000    0->  0.0000
    7  0   0.0000 =    0->  0.0000    0->  0.0000    0->  0.0000    0->  0.0000
    8  0   0.0000 =    0->  0.0000    0->  0.0000    0->  0.0000    0->  0.0000
    9  0   0.0000 =    0->  0.0000    0->  0.0000    0->  0.0000    0->  0.0000
   10  0   0.0000 =    0->  0.0000    0->  0.0000    0->  0.0000    0->  0.0000
   11  0   0.0000 =    0->  0.0000    0->  0.0000    0->  0.0000    0->  0.0000
   12  0   0.0000 =    0->  0.0000    0->  0.0000    0->  0.0000    0->  0.0000
   13  0   0.0000 =    0->  0.0000    0->  0.0000    0->  0.0000    0->  0.0000
   14  0   0.0000 =    0->  0.0000    0->  0.0000    0->  0.0000    0->  0.0000
   15  0   0.0000 =    0->  0.0000    0->  0.0000    0->  0.0000    0->  0.0000
   16  0   0.0000 =    0->  0.0000    0->  0.0000    0->  0.0000    0->  0.0000

 Total absolute monomer transf. charge   =    0.000000
 Total amount of absolute transf. charge =    0.000000

                ONE ELECTRON ENERGY =        -1967.6719340586
                TWO ELECTRON ENERGY =         1703.1835740151
           NUCLEAR REPULSION ENERGY =         -951.8343181020
                                      -----------------------
                       TOTAL ENERGY =        -1216.3226781454

 ELECTRON-ELECTRON POTENTIAL ENERGY =         1703.1835740151
  NUCLEUS-ELECTRON POTENTIAL ENERGY =        -3183.0382999968
   NUCLEUS-NUCLEUS POTENTIAL ENERGY =         -951.8343181020
                                      -----------------------
             TOTAL POTENTIAL ENERGY =        -2431.6890440837
               TOTAL KINETIC ENERGY =         1215.3663659382
                 VIRIAL RATIO (V/T) =            2.0007868510

 n-body Mulliken  atomic charges Q(n)

    IAT  IFG   Z       Q(1)        Q(2)        Q(3)
     1    1   8.0   -0.893986   -0.893986
     2    1   1.0    0.446927    0.446927
     3    1   1.0    0.447059    0.447059
     4    2   8.0   -0.895475   -0.895475
     5    2   1.0    0.448054    0.448054
     6    2   1.0    0.447420    0.447420
     7    3   8.0   -0.893224   -0.893224
     8    3   1.0    0.446633    0.446633
     9    3   1.0    0.446590    0.446590
    10    4   8.0   -0.893884   -0.893884
    11    4   1.0    0.447052    0.447052
    12    4   1.0    0.446832    0.446832
    13    5   8.0   -0.894203   -0.894203
    14    5   1.0    0.447242    0.447242
    15    5   1.0    0.446961    0.446961
    16    6   8.0   -0.894459   -0.894459
    17    6   1.0    0.447377    0.447377
    18    6   1.0    0.447081    0.447081
    19    7   8.0   -0.894223   -0.894223
    20    7   1.0    0.447079    0.447079
    21    7   1.0    0.447145    0.447145
    22    8   8.0   -0.893710   -0.893710
    23    8   1.0    0.446821    0.446821
    24    8   1.0    0.446889    0.446889
    25    9   8.0   -0.894050   -0.894050
    26    9   1.0    0.446998    0.446998
    27    9   1.0    0.447052    0.447052
    28   10   8.0   -0.894790   -0.894790
    29   10   1.0    0.447438    0.447438
    30   10   1.0    0.447352    0.447352
    31   11   8.0   -0.894984   -0.894984
    32   11   1.0    0.447117    0.447117
    33   11   1.0    0.447867    0.447867
    34   12   8.0   -0.893328   -0.893328
    35   12   1.0    0.446702    0.446702
    36   12   1.0    0.446626    0.446626
    37   13   8.0   -0.894331   -0.894331
    38   13   1.0    0.447095    0.447095
    39   13   1.0    0.447237    0.447237
    40   14   8.0   -0.894453   -0.894453
    41   14   1.0    0.447311    0.447311
    42   14   1.0    0.447142    0.447142
    43   15   8.0   -0.895612   -0.895612
    44   15   1.0    0.447494    0.447494
    45   15   1.0    0.448118    0.448118
    46   16   8.0   -0.893367   -0.893367
    47   16   1.0    0.446723    0.446723
    48   16   1.0    0.446644    0.446644

 Done with FMO properties.
 STEP CPU TIME =     0.00 TOTAL CPU TIME =        0.7 (    0.0 MIN)
 TOTAL WALL CLOCK TIME=        6.6 SECONDS, CPU UTILIZATION IS  11.08%
 STEP CPU TIME =     0.00 TOTAL CPU TIME =        0.7 (    0.0 MIN)
 TOTAL WALL CLOCK TIME=        6.6 SECONDS, CPU UTILIZATION IS  11.03%

 Total timing statistics in pairs (CPU,wall) for each rank, sec

    Rank   total     SCF    corr     DFT    CPHF     EFP    solv     ESP    geom
 -------------------------------------------------------------------------------
       1       0.7      0.2      0.0      0.0    0.0   0.0    0.0     0.0    0.0
       1       6.6      1.6      0.0      0.0    0.0   0.0    0.0     0.0    0.0
averaged       0.7      0.2      0.0      0.0    0.0   0.0    0.0     0.0    0.0
averaged       6.6      1.6      0.0      0.0    0.0   0.0    0.0     0.0    0.0

  FMO  timing statistics in pairs (CPU,wall) for each rank, sec

    Rank  FMOini FMOscf1  FMOdm1 FMOsyn1 FMOscf2  FMOes2 FMOsyn2 FMOscf3 FMOsyn3
 -------------------------------------------------------------------------------
       1    0.1       0.4    0.0    0.0       0.2       0.0    0.0    0.0    0.0
       1    1.3       3.4    0.0    0.0       0.5       0.5    0.0    0.0    0.0
averaged    0.1       0.4    0.0    0.0       0.2       0.0    0.0    0.0    0.0
averaged    1.3       3.4    0.0    0.0       0.5       0.5    0.0    0.0    0.0
                580000  WORDS OF DYNAMIC MEMORY USED
 EXECUTION OF GAMESS TERMINATED NORMALLY Thu Sep  7 12:08:09 2017
 DDI: 263640 bytes (0.3 MB / 0 MWords) used by master data server.

 ----------------------------------------
 CPU timing information for all processes
 ========================================
 0: 0.348 + 0.396 = 0.744
 ----------------------------------------
 ddikick.x: exited gracefully.
unset echo
----- accounting info -----
Files used on the master node nid03049 were:
-rwxr-x--- 1 fzahari fzahari    4792 Sep  7 12:08 /global/homes/f/fzahari/scr/wat16_FMO_o.F05*
-rw-r----- 1 fzahari fzahari  180016 Sep  7 12:08 /global/homes/f/fzahari/scr/wat16_FMO_o.F08
-rw-r----- 1 fzahari fzahari   65440 Sep  7 12:08 /global/homes/f/fzahari/scr/wat16_FMO_o.F10
-rw-r----- 1 fzahari fzahari    1040 Sep  7 12:08 /global/homes/f/fzahari/scr/wat16_FMO_o.F102
-rw-r----- 1 fzahari fzahari 1670424 Sep  7 12:08 /global/homes/f/fzahari/scr/wat16_FMO_o.F103
-rw-r----- 1 fzahari fzahari  540672 Sep  7 12:08 /global/homes/f/fzahari/scr/wat16_FMO_o.F40
-rw-r----- 1 fzahari fzahari  154575 Sep  7 12:08 /global/homes/f/fzahari/scr/wat16_FMO_o.dat
ls: No match.
ls: No match.
ls: No match.
Thu Sep  7 12:08:12 PDT 2017
0.528u 0.124s 0:11.25 5.6%	0+0k 1172+0io 9pf+0w
